
     Program PWSCF v.6.8 starts on  2Mar2022 at 19: 9:16 

     This program is part of the open-source Quantum ESPRESSO suite
     for quantum simulation of materials; please cite
         "P. Giannozzi et al., J. Phys.:Condens. Matter 21 395502 (2009);
         "P. Giannozzi et al., J. Phys.:Condens. Matter 29 465901 (2017);
         "P. Giannozzi et al., J. Chem. Phys. 152 154105 (2020);
          URL http://www.quantum-espresso.org", 
     in publications or presentations arising from this work. More details at
     http://www.quantum-espresso.org/quote

     Parallel version (MPI & OpenMP), running on    4096 processor cores
     Number of MPI processes:              1024
     Threads/MPI process:                     4

     MPI processes distributed on    16 nodes
     K-points division:     npool     =      16
     R & G space division:  proc/nbgrp/npool/nimage =      64
     89554 MiB available memory on the printing compute node when the environment starts
 
     Waiting for input...
     Reading input from standard input
Warning: card  &CELL ignored
Warning: card  CELL_DOFREE='XYZ' ignored
Warning: card / ignored

     Current dimensions of program PWSCF are:
     Max number of different atomic species (ntypx) = 10
     Max number of k-points (npk) =  40000
     Max angular momentum in pseudopotentials (lmaxx) =  4
     file Sr.pbe-spn-kjpaw_psl.1.0.0.UPF: wavefunction(s)  4P renormalized
     file Co.pbe-spn-kjpaw_psl.0.3.1.UPF: wavefunction(s)  3P 3D renormalized
     file Co.pbe-spn-kjpaw_psl.0.3.1.UPF: wavefunction(s)  3P 3D renormalized
     file O.pbe-n-kjpaw_psl.1.0.0.UPF: wavefunction(s)  2S 2P renormalized
     Message from routine setup:
     using ibrav=0 with symmetry is DISCOURAGED, use correct ibrav instead

     Subspace diagonalization in iterative solution of the eigenvalue problem:
     one sub-group per band group will be used
     scalapack distributed-memory algorithm (size of sub-group:  8*  8 procs)

 
     Parallelization info
     --------------------
     sticks:   dense  smooth     PW     G-vecs:    dense   smooth      PW
     Min         281     140     38                16549     5848     836
     Max         282     141     39                16552     5853     839
     Sum       18039    9015   2467              1059291   374473   53559
 
     Using Slab Decomposition
 


     bravais-lattice index     =            0
     lattice parameter (alat)  =      10.5182  a.u.
     unit-cell volume          =    3247.2352 (a.u.)^3
     number of atoms/cell      =           36
     number of atomic types    =            4
     number of electrons       =       336.00 (up: 168.00, down: 168.00)
     number of Kohn-Sham states=          240
     kinetic-energy cutoff     =      90.0000  Ry
     charge density cutoff     =     720.0000  Ry
     scf convergence threshold =      1.0E-06
     mixing beta               =       0.5000
     number of iterations used =            8  plain     mixing
     Exchange-correlation= SLA  PW   PBX  PBC
                           (   1   4   3   4   0   0   0)

     celldm(1)=  10.518247  celldm(2)=   0.000000  celldm(3)=   0.000000
     celldm(4)=   0.000000  celldm(5)=   0.000000  celldm(6)=   0.000000

     crystal axes: (cart. coord. in units of alat)
               a(1) = (   1.000000   0.000000   0.000000 )  
               a(2) = (   0.000000   2.848189   0.000000 )  
               a(3) = (   0.000000   0.000000   0.979749 )  

     reciprocal axes: (cart. coord. in units 2 pi/alat)
               b(1) = (  1.000000  0.000000  0.000000 )  
               b(2) = (  0.000000  0.351100  0.000000 )  
               b(3) = (  0.000000  0.000000  1.020670 )  


     PseudoPot. # 1 for Sr read from file:
     /global/cscratch1/sd/yjshin90/Cobalt_OOV/PP/Sr.pbe-spn-kjpaw_psl.1.0.0.UPF
     MD5 check sum: a3c6d0287e6b0f325c5350c23079ab60
     Pseudo is Projector augmented-wave + core cor, Zval = 10.0
     Generated using &quot;atomic&quot; code by A. Dal Corso  v.6.2.2
     Shape of augmentation charge: PSQ
     Using radial grid of 1221 points,  6 beta functions with: 
                l(1) =   0
                l(2) =   0
                l(3) =   1
                l(4) =   1
                l(5) =   2
                l(6) =   2
     Q(r) pseudized with 0 coefficients 


     PseudoPot. # 2 for Co read from file:
     /global/cscratch1/sd/yjshin90/Cobalt_OOV/PP/Co.pbe-spn-kjpaw_psl.0.3.1.UPF
     MD5 check sum: 3c0a43779828c046024e4f3be63f8e67
     Pseudo is Projector augmented-wave + core cor, Zval = 17.0
     Generated using &quot;atomic&quot; code by A. Dal Corso  v.6.2.2
     Shape of augmentation charge: PSQ
     Using radial grid of 1193 points,  6 beta functions with: 
                l(1) =   0
                l(2) =   0
                l(3) =   1
                l(4) =   1
                l(5) =   2
                l(6) =   2
     Q(r) pseudized with 0 coefficients 


     PseudoPot. # 3 for Co read from file:
     /global/cscratch1/sd/yjshin90/Cobalt_OOV/PP/Co.pbe-spn-kjpaw_psl.0.3.1.UPF
     MD5 check sum: 3c0a43779828c046024e4f3be63f8e67
     Pseudo is Projector augmented-wave + core cor, Zval = 17.0
     Generated using &quot;atomic&quot; code by A. Dal Corso  v.6.2.2
     Shape of augmentation charge: PSQ
     Using radial grid of 1193 points,  6 beta functions with: 
                l(1) =   0
                l(2) =   0
                l(3) =   1
                l(4) =   1
                l(5) =   2
                l(6) =   2
     Q(r) pseudized with 0 coefficients 


     PseudoPot. # 4 for O  read from file:
     /global/cscratch1/sd/yjshin90/Cobalt_OOV/PP/O.pbe-n-kjpaw_psl.1.0.0.UPF
     MD5 check sum: e99d9cef9b487d1ca56f5b95ecd0fd7a
     Pseudo is Projector augmented-wave + core cor, Zval =  6.0
     Generated using &quot;atomic&quot; code by A. Dal Corso  v.6.3
     Shape of augmentation charge: PSQ
     Using radial grid of 1095 points,  4 beta functions with: 
                l(1) =   0
                l(2) =   0
                l(3) =   1
                l(4) =   1
     Q(r) pseudized with 0 coefficients 


     atomic species   valence    mass     pseudopotential
        Sr            10.00    87.62000     Sr( 1.00)
        Co1           17.00    58.93320     Co( 1.00)
        Co2           17.00    58.93320     Co( 1.00)
        O              6.00    16.00000     O ( 1.00)

     Starting magnetic structure 
     atomic species   magnetization
        Sr           0.000
        Co1          0.400
        Co2         -0.400
        O            0.000


     Simplified LDA+U calculation (l_max = 2) with parameters (eV):
     atomic species    L          U    alpha       J0     beta
        Co1            2     3.0000   0.0000   0.0000   0.0000
        Co2            2     3.0000   0.0000   0.0000   0.0000



      4 Sym. Ops., with inversion, found ( 2 have fractional translation)



   Cartesian axes

     site n.     atom                  positions (alat units)
         1           Sr  tau(   1) = (   0.9883469   0.3150443   0.4865570  )
         2           Sr  tau(   2) = (   0.0116531   2.5331448   0.4931920  )
         3           Sr  tau(   3) = (   0.4883632   2.5331457   0.0033223  )
         4           Sr  tau(   4) = (   0.5116368   0.3150434   0.9764268  )
         5           Sr  tau(   5) = (   0.0116531   1.7391389   0.4931920  )
         6           Sr  tau(   6) = (   0.9883469   1.1090502   0.4865570  )
         7           Sr  tau(   7) = (   0.5116368   1.1090511   0.9764268  )
         8           Sr  tau(   8) = (   0.4883632   1.7391380   0.0033223  )
         9           Co1 tau(   9) = (   0.0000000   0.0000000   0.0000000  )
        10           Co2 tau(  10) = (   0.5000000   0.0000000   0.4898745  )
        11           Co1 tau(  11) = (   0.0000000   1.4240946   0.0000000  )
        12           Co2 tau(  12) = (   0.5000000   1.4240946   0.4898745  )
        13           Co2 tau(  13) = (   0.0577228   0.7120473   0.9439061  )
        14           Co2 tau(  14) = (   0.9422772   2.1361418   0.0358429  )
        15           Co1 tau(  15) = (   0.5577819   2.1361418   0.5257357  )
        16           Co1 tau(  16) = (   0.4422181   0.7120473   0.4540133  )
        17           O   tau(  17) = (   0.7520403   2.8205451   0.2443465  )
        18           O   tau(  18) = (   0.2479597   0.0276440   0.7354026  )
        19           O   tau(  19) = (   0.2518775   0.0276468   0.2453701  )
        20           O   tau(  20) = (   0.7481225   2.8205423   0.7343789  )
        21           O   tau(  21) = (   0.2479597   1.3964506   0.7354026  )
        22           O   tau(  22) = (   0.7520403   1.4517385   0.2443465  )
        23           O   tau(  23) = (   0.7481225   1.4517414   0.7343789  )
        24           O   tau(  24) = (   0.2518775   1.3964477   0.2453701  )
        25           O   tau(  25) = (   0.9549525   0.4075561   0.0111245  )
        26           O   tau(  26) = (   0.0450475   2.4406330   0.9686245  )
        27           O   tau(  27) = (   0.4549344   2.4406809   0.4787359  )
        28           O   tau(  28) = (   0.5450656   0.4075081   0.5010131  )
        29           O   tau(  29) = (   0.0450475   1.8316507   0.9686245  )
        30           O   tau(  30) = (   0.9549525   1.0165385   0.0111245  )
        31           O   tau(  31) = (   0.5450656   1.0165864   0.5010131  )
        32           O   tau(  32) = (   0.4549344   1.8316028   0.4787359  )
        33           O   tau(  33) = (   0.1347816   0.7120473   0.6095630  )
        34           O   tau(  34) = (   0.8652185   2.1361418   0.3701860  )
        35           O   tau(  35) = (   0.6348225   2.1361418   0.8600388  )
        36           O   tau(  36) = (   0.3651775   0.7120473   0.1197102  )

     number of k points=    40 (tetrahedron method)
                       cart. coord. in units 2pi/alat
        k(    1) = (   0.0000000   0.0000000   0.0000000), wk =   0.0092593
        k(    2) = (   0.0000000   0.0000000   0.1701116), wk =   0.0185185
        k(    3) = (   0.0000000   0.0000000   0.3402232), wk =   0.0185185
        k(    4) = (   0.0000000   0.0000000  -0.5103348), wk =   0.0092593
        k(    5) = (   0.0000000   0.1170334   0.0000000), wk =   0.0185185
        k(    6) = (   0.0000000   0.1170334   0.1701116), wk =   0.0370370
        k(    7) = (   0.0000000   0.1170334   0.3402232), wk =   0.0370370
        k(    8) = (   0.0000000   0.1170334  -0.5103348), wk =   0.0185185
        k(    9) = (   0.1666667   0.0000000   0.0000000), wk =   0.0185185
        k(   10) = (   0.1666667   0.0000000   0.1701116), wk =   0.0185185
        k(   11) = (   0.1666667   0.0000000   0.3402232), wk =   0.0185185
        k(   12) = (   0.1666667   0.0000000  -0.5103348), wk =   0.0185185
        k(   13) = (   0.1666667   0.1170334   0.0000000), wk =   0.0370370
        k(   14) = (   0.1666667   0.1170334   0.1701116), wk =   0.0370370
        k(   15) = (   0.1666667   0.1170334   0.3402232), wk =   0.0370370
        k(   16) = (   0.1666667   0.1170334  -0.5103348), wk =   0.0370370
        k(   17) = (   0.3333333   0.0000000   0.0000000), wk =   0.0185185
        k(   18) = (   0.3333333   0.0000000   0.1701116), wk =   0.0185185
        k(   19) = (   0.3333333   0.0000000   0.3402232), wk =   0.0185185
        k(   20) = (   0.3333333   0.0000000  -0.5103348), wk =   0.0185185
        k(   21) = (   0.3333333   0.1170334   0.0000000), wk =   0.0370370
        k(   22) = (   0.3333333   0.1170334   0.1701116), wk =   0.0370370
        k(   23) = (   0.3333333   0.1170334   0.3402232), wk =   0.0370370
        k(   24) = (   0.3333333   0.1170334  -0.5103348), wk =   0.0370370
        k(   25) = (  -0.5000000   0.0000000   0.0000000), wk =   0.0092593
        k(   26) = (  -0.5000000   0.0000000   0.1701116), wk =   0.0185185
        k(   27) = (  -0.5000000   0.0000000   0.3402232), wk =   0.0185185
        k(   28) = (  -0.5000000   0.0000000  -0.5103348), wk =   0.0092593
        k(   29) = (  -0.5000000   0.1170334   0.0000000), wk =   0.0185185
        k(   30) = (  -0.5000000   0.1170334   0.1701116), wk =   0.0370370
        k(   31) = (  -0.5000000   0.1170334   0.3402232), wk =   0.0370370
        k(   32) = (  -0.5000000   0.1170334  -0.5103348), wk =   0.0185185
        k(   33) = (  -0.1666667   0.0000000   0.1701116), wk =   0.0185185
        k(   34) = (  -0.1666667   0.0000000   0.3402232), wk =   0.0185185
        k(   35) = (  -0.1666667  -0.1170334   0.1701116), wk =   0.0370370
        k(   36) = (  -0.1666667  -0.1170334   0.3402232), wk =   0.0370370
        k(   37) = (  -0.3333333   0.0000000   0.1701116), wk =   0.0185185
        k(   38) = (  -0.3333333   0.0000000   0.3402232), wk =   0.0185185
        k(   39) = (  -0.3333333  -0.1170334   0.1701116), wk =   0.0370370
        k(   40) = (  -0.3333333  -0.1170334   0.3402232), wk =   0.0370370

     Dense  grid:  1059291 G-vectors     FFT dimensions: (  90, 256,  90)

     Smooth grid:   374473 G-vectors     FFT dimensions: (  64, 192,  64)

     Estimated max dynamical RAM per process >      57.31 MB

     Estimated total dynamical RAM >      49.73 GB

     Check: negative core charge=   -0.000003
     Generating pointlists ...
     new r_m :   0.1818 (alat units)  1.9119 (a.u.) for type    1
     new r_m :   0.1340 (alat units)  1.4095 (a.u.) for type    2
     new r_m :   0.1340 (alat units)  1.4092 (a.u.) for type    3
     new r_m :   0.1340 (alat units)  1.4092 (a.u.) for type    4

     The initial density is read from file :
     ./LSCO.save/charge-density

     Number of +U iterations with fixed ns =  5
     Starting occupations:
 --- enter write_ns ---
 LDA+U parameters:
U( 2)     =  3.00000000
U( 3)     =  3.00000000
atom    9   Tr[ns(na)] (up, down, total) =   4.93009  2.42079  7.35088
   spin  1
    eigenvalues: 
  0.968  0.984  0.990  0.993  0.994
    eigenvectors:
  0.003  0.212  0.000  0.778  0.007
  0.979  0.013  0.001  0.000  0.007
  0.006  0.001  0.624  0.002  0.368
  0.012  0.726  0.017  0.219  0.026
  0.000  0.049  0.357  0.001  0.592
    occupations:
  0.991  0.001 -0.000 -0.004 -0.001
  0.001  0.968 -0.002  0.002 -0.001
 -0.000 -0.002  0.992 -0.000  0.002
 -0.004  0.002 -0.000  0.986 -0.002
 -0.001 -0.001  0.002 -0.002  0.992
   spin  2
    eigenvalues: 
  0.233  0.238  0.384  0.575  0.991
    eigenvectors:
  0.772  0.172  0.038  0.019  0.000
  0.003  0.000  0.174  0.814  0.008
  0.034  0.212  0.007  0.021  0.725
  0.127  0.066  0.673  0.129  0.005
  0.063  0.550  0.108  0.018  0.261
    occupations:
  0.246  0.031  0.002  0.041  0.018
  0.031  0.544 -0.019  0.054  0.055
  0.002 -0.019  0.792  0.075 -0.318
  0.041  0.054  0.075  0.383  0.027
  0.018  0.055 -0.318  0.027  0.456
atomic mag. moment =   2.50930
atom   10   Tr[ns(na)] (up, down, total) =   2.42019  4.93045  7.35064
   spin  1
    eigenvalues: 
  0.232  0.237  0.384  0.575  0.991
    eigenvectors:
  0.772  0.172  0.037  0.019  0.000
  0.003  0.000  0.176  0.812  0.008
  0.034  0.211  0.007  0.021  0.727
  0.127  0.066  0.671  0.130  0.005
  0.064  0.550  0.109  0.018  0.259
    occupations:
  0.245 -0.031  0.003  0.041 -0.018
 -0.031  0.544  0.019 -0.054  0.055
  0.003  0.019  0.794  0.075  0.317
  0.041 -0.054  0.075  0.383 -0.028
 -0.018  0.055  0.317 -0.028  0.454
   spin  2
    eigenvalues: 
  0.968  0.984  0.990  0.993  0.994
    eigenvectors:
  0.003  0.212  0.000  0.778  0.007
  0.979  0.013  0.001  0.000  0.007
  0.006  0.001  0.626  0.002  0.366
  0.012  0.725  0.017  0.219  0.026
  0.000  0.049  0.356  0.001  0.593
    occupations:
  0.991 -0.001 -0.000 -0.004  0.001
 -0.001  0.969  0.002 -0.002 -0.001
 -0.000  0.002  0.992 -0.000 -0.002
 -0.004 -0.002 -0.000  0.986  0.002
  0.001 -0.001 -0.002  0.002  0.992
atomic mag. moment =  -2.51027
atom   11   Tr[ns(na)] (up, down, total) =   4.93009  2.42079  7.35088
   spin  1
    eigenvalues: 
  0.968  0.984  0.990  0.993  0.994
    eigenvectors:
  0.003  0.212  0.000  0.778  0.007
  0.979  0.013  0.001  0.000  0.007
  0.006  0.001  0.624  0.002  0.368
  0.012  0.726  0.017  0.219  0.026
  0.000  0.049  0.357  0.001  0.592
    occupations:
  0.991  0.001  0.000 -0.004  0.001
  0.001  0.968  0.002  0.002  0.001
  0.000  0.002  0.992  0.000  0.002
 -0.004  0.002  0.000  0.986  0.002
  0.001  0.001  0.002  0.002  0.992
   spin  2
    eigenvalues: 
  0.233  0.238  0.384  0.575  0.991
    eigenvectors:
  0.772  0.172  0.038  0.019  0.000
  0.003  0.000  0.174  0.814  0.008
  0.034  0.212  0.007  0.021  0.725
  0.127  0.066  0.673  0.129  0.005
  0.063  0.550  0.108  0.018  0.261
    occupations:
  0.246  0.031 -0.002  0.041 -0.018
  0.031  0.544  0.019  0.054 -0.055
 -0.002  0.019  0.792 -0.075 -0.318
  0.041  0.054 -0.075  0.383 -0.027
 -0.018 -0.055 -0.318 -0.027  0.456
atomic mag. moment =   2.50930
atom   12   Tr[ns(na)] (up, down, total) =   2.42019  4.93045  7.35064
   spin  1
    eigenvalues: 
  0.232  0.237  0.384  0.575  0.991
    eigenvectors:
  0.772  0.172  0.037  0.019  0.000
  0.003  0.000  0.176  0.812  0.008
  0.034  0.211  0.007  0.021  0.727
  0.127  0.066  0.671  0.130  0.005
  0.064  0.550  0.109  0.018  0.259
    occupations:
  0.245 -0.031 -0.003  0.041  0.018
 -0.031  0.544 -0.019 -0.054 -0.055
 -0.003 -0.019  0.794 -0.075  0.317
  0.041 -0.054 -0.075  0.383  0.028
  0.018 -0.055  0.317  0.028  0.454
   spin  2
    eigenvalues: 
  0.968  0.984  0.990  0.993  0.994
    eigenvectors:
  0.003  0.212  0.000  0.778  0.007
  0.979  0.013  0.001  0.000  0.007
  0.006  0.001  0.626  0.002  0.366
  0.012  0.725  0.017  0.219  0.026
  0.000  0.049  0.356  0.001  0.593
    occupations:
  0.991 -0.001  0.000 -0.004 -0.001
 -0.001  0.969 -0.002 -0.002  0.001
  0.000 -0.002  0.992  0.000 -0.002
 -0.004 -0.002  0.000  0.986 -0.002
 -0.001  0.001 -0.002 -0.002  0.992
atomic mag. moment =  -2.51027
atom   13   Tr[ns(na)] (up, down, total) =   2.50355  4.92501  7.42856
   spin  1
    eigenvalues: 
  0.309  0.325  0.374  0.506  0.990
    eigenvectors:
  0.000  0.430  0.000  0.337  0.232
  0.000  0.435  0.000  0.017  0.548
  0.822  0.000  0.178  0.000  0.000
  0.000  0.135  0.000  0.645  0.220
  0.178  0.000  0.822  0.000  0.000
    occupations:
  0.541 -0.251  0.000 -0.066  0.000
 -0.251  0.692 -0.000  0.212  0.000
  0.000 -0.000  0.321 -0.000  0.025
 -0.066  0.212 -0.000  0.588 -0.000
  0.000  0.000  0.025 -0.000  0.362
   spin  2
    eigenvalues: 
  0.973  0.982  0.986  0.991  0.993
    eigenvectors:
  0.382  0.000  0.612  0.007  0.000
  0.030  0.000  0.055  0.915  0.000
  0.000  0.166  0.000  0.000  0.834
  0.588  0.000  0.333  0.079  0.000
  0.000  0.834  0.000  0.000  0.166
    occupations:
  0.981  0.001 -0.000 -0.006  0.000
  0.001  0.990 -0.000  0.003  0.000
 -0.000 -0.000  0.991  0.000 -0.004
 -0.006  0.003  0.000  0.979 -0.000
  0.000  0.000 -0.004 -0.000  0.984
atomic mag. moment =  -2.42146
atom   14   Tr[ns(na)] (up, down, total) =   2.50355  4.92501  7.42856
   spin  1
    eigenvalues: 
  0.309  0.325  0.374  0.506  0.990
    eigenvectors:
  0.000  0.430  0.000  0.337  0.232
  0.000  0.435  0.000  0.017  0.548
  0.822  0.000  0.178  0.000  0.000
  0.000  0.135  0.000  0.645  0.220
  0.178  0.000  0.822  0.000  0.000
    occupations:
  0.541 -0.251  0.000 -0.066  0.000
 -0.251  0.692 -0.000  0.212  0.000
  0.000 -0.000  0.321 -0.000  0.025
 -0.066  0.212 -0.000  0.588 -0.000
  0.000  0.000  0.025 -0.000  0.362
   spin  2
    eigenvalues: 
  0.973  0.982  0.986  0.991  0.993
    eigenvectors:
  0.382  0.000  0.612  0.007  0.000
  0.030  0.000  0.055  0.915  0.000
  0.000  0.166  0.000  0.000  0.834
  0.588  0.000  0.333  0.079  0.000
  0.000  0.834  0.000  0.000  0.166
    occupations:
  0.981  0.001 -0.000 -0.006  0.000
  0.001  0.990 -0.000  0.003  0.000
 -0.000 -0.000  0.991  0.000 -0.004
 -0.006  0.003  0.000  0.979 -0.000
  0.000  0.000 -0.004 -0.000  0.984
atomic mag. moment =  -2.42146
atom   15   Tr[ns(na)] (up, down, total) =   4.92507  2.50333  7.42840
   spin  1
    eigenvalues: 
  0.973  0.982  0.986  0.991  0.993
    eigenvectors:
  0.382  0.000  0.611  0.007  0.000
  0.030  0.000  0.056  0.915  0.000
  0.000  0.166  0.000  0.000  0.834
  0.588  0.000  0.333  0.079  0.000
  0.000  0.834  0.000  0.000  0.166
    occupations:
  0.981 -0.001 -0.000 -0.006  0.000
 -0.001  0.990 -0.000 -0.003  0.000
 -0.000 -0.000  0.991  0.000  0.004
 -0.006 -0.003  0.000  0.979 -0.000
  0.000  0.000  0.004 -0.000  0.984
   spin  2
    eigenvalues: 
  0.309  0.325  0.374  0.506  0.990
    eigenvectors:
  0.000  0.430  0.000  0.338  0.232
  0.000  0.435  0.000  0.017  0.547
  0.822  0.000  0.178  0.000  0.000
  0.000  0.135  0.000  0.645  0.220
  0.178  0.000  0.822  0.000  0.000
    occupations:
  0.540  0.251 -0.000 -0.066  0.000
  0.251  0.692 -0.000 -0.212  0.000
 -0.000 -0.000  0.321  0.000 -0.025
 -0.066 -0.212  0.000  0.588 -0.000
  0.000  0.000 -0.025 -0.000  0.362
atomic mag. moment =   2.42174
atom   16   Tr[ns(na)] (up, down, total) =   4.92507  2.50333  7.42840
   spin  1
    eigenvalues: 
  0.973  0.982  0.986  0.991  0.993
    eigenvectors:
  0.382  0.000  0.611  0.007  0.000
  0.030  0.000  0.056  0.915  0.000
  0.000  0.166  0.000  0.000  0.834
  0.588  0.000  0.333  0.079  0.000
  0.000  0.834  0.000  0.000  0.166
    occupations:
  0.981 -0.001 -0.000 -0.006  0.000
 -0.001  0.990 -0.000 -0.003  0.000
 -0.000 -0.000  0.991  0.000  0.004
 -0.006 -0.003  0.000  0.979 -0.000
  0.000  0.000  0.004 -0.000  0.984
   spin  2
    eigenvalues: 
  0.309  0.325  0.374  0.506  0.990
    eigenvectors:
  0.000  0.430  0.000  0.338  0.232
  0.000  0.435  0.000  0.017  0.547
  0.822  0.000  0.178  0.000  0.000
  0.000  0.135  0.000  0.645  0.220
  0.178  0.000  0.822  0.000  0.000
    occupations:
  0.540  0.251 -0.000 -0.066  0.000
  0.251  0.692 -0.000 -0.212  0.000
 -0.000 -0.000  0.321  0.000 -0.025
 -0.066 -0.212  0.000  0.588 -0.000
  0.000  0.000 -0.025 -0.000  0.362
atomic mag. moment =   2.42174
N of occupied +U levels =   59.116969
 --- exit write_ns ---
 Atomic wfc used for LDA+U Projector are NOT orthogonalized
     Starting wfcs are  224 randomized atomic wfcs +   16 random wfcs
     Checking if some PAW data can be deallocated... 

     total cpu time spent up to now is       17.4 secs

     Self-consistent Calculation

     iteration #  1     ecut=    90.00 Ry     beta= 0.50
     CG style diagonalization
     c_bands:  4 eigenvalues not converged
     c_bands:  4 eigenvalues not converged
     c_bands:  5 eigenvalues not converged
     c_bands:  4 eigenvalues not converged
     c_bands:  3 eigenvalues not converged
     ethr =  1.00E-05,  avg # of iterations = 36.0
 --- enter write_ns ---
 LDA+U parameters:
U( 2)     =  3.00000000
U( 3)     =  3.00000000
atom    9   Tr[ns(na)] (up, down, total) =   4.93007  2.42087  7.35095
   spin  1
    eigenvalues: 
  0.968  0.984  0.990  0.993  0.994
    eigenvectors:
  0.003  0.213  0.000  0.777  0.007
  0.979  0.013  0.001  0.000  0.007
  0.006  0.001  0.624  0.002  0.368
  0.012  0.725  0.017  0.220  0.026
  0.000  0.049  0.358  0.001  0.592
    occupations:
  0.991  0.001 -0.000 -0.004 -0.001
  0.001  0.968 -0.002  0.002 -0.001
 -0.000 -0.002  0.992 -0.000  0.002
 -0.004  0.002 -0.000  0.986 -0.002
 -0.001 -0.001  0.002 -0.002  0.992
   spin  2
    eigenvalues: 
  0.233  0.238  0.384  0.575  0.991
    eigenvectors:
  0.775  0.169  0.038  0.019  0.000
  0.003  0.000  0.174  0.814  0.008
  0.034  0.213  0.007  0.021  0.725
  0.127  0.066  0.673  0.129  0.005
  0.062  0.552  0.108  0.017  0.261
    occupations:
  0.246  0.031  0.002  0.041  0.018
  0.031  0.544 -0.019  0.054  0.055
  0.002 -0.019  0.792  0.075 -0.318
  0.041  0.054  0.075  0.383  0.027
  0.018  0.055 -0.318  0.027  0.456
atomic mag. moment =   2.50920
atom   10   Tr[ns(na)] (up, down, total) =   2.42007  4.93041  7.35048
   spin  1
    eigenvalues: 
  0.232  0.237  0.384  0.575  0.991
    eigenvectors:
  0.774  0.170  0.037  0.019  0.000
  0.003  0.000  0.176  0.812  0.008
  0.034  0.211  0.007  0.021  0.727
  0.126  0.067  0.672  0.130  0.005
  0.063  0.551  0.109  0.018  0.259
    occupations:
  0.245 -0.031  0.003  0.041 -0.018
 -0.031  0.544  0.019 -0.054  0.055
  0.003  0.019  0.794  0.075  0.317
  0.041 -0.054  0.075  0.383 -0.028
 -0.018  0.055  0.317 -0.028  0.454
   spin  2
    eigenvalues: 
  0.968  0.984  0.990  0.993  0.994
    eigenvectors:
  0.003  0.213  0.000  0.777  0.007
  0.979  0.013  0.001  0.000  0.007
  0.006  0.001  0.625  0.002  0.367
  0.012  0.725  0.017  0.220  0.026
  0.000  0.049  0.357  0.001  0.593
    occupations:
  0.991 -0.001 -0.000 -0.004  0.001
 -0.001  0.969  0.002 -0.002 -0.001
 -0.000  0.002  0.992 -0.000 -0.002
 -0.004 -0.002 -0.000  0.986  0.002
  0.001 -0.001 -0.002  0.002  0.992
atomic mag. moment =  -2.51034
atom   11   Tr[ns(na)] (up, down, total) =   4.93007  2.42087  7.35095
   spin  1
    eigenvalues: 
  0.968  0.984  0.990  0.993  0.994
    eigenvectors:
  0.003  0.213  0.000  0.777  0.007
  0.979  0.013  0.001  0.000  0.007
  0.006  0.001  0.624  0.002  0.368
  0.012  0.725  0.017  0.220  0.026
  0.000  0.049  0.358  0.001  0.592
    occupations:
  0.991  0.001  0.000 -0.004  0.001
  0.001  0.968  0.002  0.002  0.001
  0.000  0.002  0.992  0.000  0.002
 -0.004  0.002  0.000  0.986  0.002
  0.001  0.001  0.002  0.002  0.992
   spin  2
    eigenvalues: 
  0.233  0.238  0.384  0.575  0.991
    eigenvectors:
  0.775  0.169  0.038  0.019  0.000
  0.003  0.000  0.174  0.814  0.008
  0.034  0.213  0.007  0.021  0.725
  0.127  0.066  0.673  0.129  0.005
  0.062  0.552  0.108  0.017  0.261
    occupations:
  0.246  0.031 -0.002  0.041 -0.018
  0.031  0.544  0.019  0.054 -0.055
 -0.002  0.019  0.792 -0.075 -0.318
  0.041  0.054 -0.075  0.383 -0.027
 -0.018 -0.055 -0.318 -0.027  0.456
atomic mag. moment =   2.50920
atom   12   Tr[ns(na)] (up, down, total) =   2.42007  4.93041  7.35048
   spin  1
    eigenvalues: 
  0.232  0.237  0.384  0.575  0.991
    eigenvectors:
  0.774  0.170  0.037  0.019  0.000
  0.003  0.000  0.176  0.812  0.008
  0.034  0.211  0.007  0.021  0.727
  0.126  0.067  0.672  0.130  0.005
  0.063  0.551  0.109  0.018  0.259
    occupations:
  0.245 -0.031 -0.003  0.041  0.018
 -0.031  0.544 -0.019 -0.054 -0.055
 -0.003 -0.019  0.794 -0.075  0.317
  0.041 -0.054 -0.075  0.383  0.028
  0.018 -0.055  0.317  0.028  0.454
   spin  2
    eigenvalues: 
  0.968  0.984  0.990  0.993  0.994
    eigenvectors:
  0.003  0.213  0.000  0.777  0.007
  0.979  0.013  0.001  0.000  0.007
  0.006  0.001  0.625  0.002  0.367
  0.012  0.725  0.017  0.220  0.026
  0.000  0.049  0.357  0.001  0.593
    occupations:
  0.991 -0.001  0.000 -0.004 -0.001
 -0.001  0.969 -0.002 -0.002  0.001
  0.000 -0.002  0.992  0.000 -0.002
 -0.004 -0.002  0.000  0.986 -0.002
 -0.001  0.001 -0.002 -0.002  0.992
atomic mag. moment =  -2.51034
atom   13   Tr[ns(na)] (up, down, total) =   2.50372  4.92491  7.42863
   spin  1
    eigenvalues: 
  0.309  0.325  0.374  0.506  0.990
    eigenvectors:
  0.000  0.430  0.000  0.338  0.232
  0.000  0.435  0.000  0.017  0.548
  0.822  0.000  0.178  0.000  0.000
  0.000  0.135  0.000  0.645  0.220
  0.178  0.000  0.822  0.000  0.000
    occupations:
  0.541 -0.251 -0.000 -0.066  0.000
 -0.251  0.692 -0.000  0.212  0.000
 -0.000 -0.000  0.321  0.000  0.025
 -0.066  0.212  0.000  0.588 -0.000
  0.000  0.000  0.025 -0.000  0.362
   spin  2
    eigenvalues: 
  0.973  0.982  0.986  0.991  0.993
    eigenvectors:
  0.382  0.000  0.611  0.007  0.000
  0.030  0.000  0.057  0.913  0.000
  0.000  0.166  0.000  0.000  0.834
  0.588  0.000  0.332  0.080  0.000
  0.000  0.834  0.000  0.000  0.166
    occupations:
  0.981  0.001 -0.000 -0.006  0.000
  0.001  0.990 -0.000  0.003  0.000
 -0.000 -0.000  0.991  0.000 -0.004
 -0.006  0.003  0.000  0.979 -0.000
  0.000  0.000 -0.004 -0.000  0.984
atomic mag. moment =  -2.42119
atom   14   Tr[ns(na)] (up, down, total) =   2.50372  4.92491  7.42863
   spin  1
    eigenvalues: 
  0.309  0.325  0.374  0.506  0.990
    eigenvectors:
  0.000  0.430  0.000  0.338  0.232
  0.000  0.435  0.000  0.017  0.548
  0.822  0.000  0.178  0.000  0.000
  0.000  0.135  0.000  0.645  0.220
  0.178  0.000  0.822  0.000  0.000
    occupations:
  0.541 -0.251 -0.000 -0.066  0.000
 -0.251  0.692 -0.000  0.212  0.000
 -0.000 -0.000  0.321  0.000  0.025
 -0.066  0.212  0.000  0.588 -0.000
  0.000  0.000  0.025 -0.000  0.362
   spin  2
    eigenvalues: 
  0.973  0.982  0.986  0.991  0.993
    eigenvectors:
  0.382  0.000  0.611  0.007  0.000
  0.030  0.000  0.057  0.913  0.000
  0.000  0.166  0.000  0.000  0.834
  0.588  0.000  0.332  0.080  0.000
  0.000  0.834  0.000  0.000  0.166
    occupations:
  0.981  0.001 -0.000 -0.006  0.000
  0.001  0.990 -0.000  0.003  0.000
 -0.000 -0.000  0.991  0.000 -0.004
 -0.006  0.003  0.000  0.979 -0.000
  0.000  0.000 -0.004 -0.000  0.984
atomic mag. moment =  -2.42119
atom   15   Tr[ns(na)] (up, down, total) =   4.92498  2.50341  7.42838
   spin  1
    eigenvalues: 
  0.973  0.982  0.986  0.991  0.993
    eigenvectors:
  0.383  0.000  0.610  0.007  0.000
  0.030  0.000  0.057  0.913  0.000
  0.000  0.166  0.000  0.000  0.834
  0.587  0.000  0.333  0.080  0.000
  0.000  0.834  0.000  0.000  0.166
    occupations:
  0.981 -0.001 -0.000 -0.006  0.000
 -0.001  0.990 -0.000 -0.003  0.000
 -0.000 -0.000  0.991  0.000  0.004
 -0.006 -0.003  0.000  0.979 -0.000
  0.000  0.000  0.004 -0.000  0.984
   spin  2
    eigenvalues: 
  0.309  0.325  0.374  0.506  0.990
    eigenvectors:
  0.000  0.430  0.000  0.338  0.232
  0.000  0.435  0.000  0.017  0.547
  0.822  0.000  0.178  0.000  0.000
  0.000  0.135  0.000  0.645  0.220
  0.178  0.000  0.822  0.000  0.000
    occupations:
  0.540  0.251 -0.000 -0.066  0.000
  0.251  0.692 -0.000 -0.212  0.000
 -0.000 -0.000  0.321  0.000 -0.025
 -0.066 -0.212  0.000  0.588 -0.000
  0.000  0.000 -0.025 -0.000  0.362
atomic mag. moment =   2.42157
atom   16   Tr[ns(na)] (up, down, total) =   4.92498  2.50341  7.42838
   spin  1
    eigenvalues: 
  0.973  0.982  0.986  0.991  0.993
    eigenvectors:
  0.383  0.000  0.610  0.007  0.000
  0.030  0.000  0.057  0.913  0.000
  0.000  0.166  0.000  0.000  0.834
  0.587  0.000  0.333  0.080  0.000
  0.000  0.834  0.000  0.000  0.166
    occupations:
  0.981 -0.001 -0.000 -0.006  0.000
 -0.001  0.990 -0.000 -0.003  0.000
 -0.000 -0.000  0.991  0.000  0.004
 -0.006 -0.003  0.000  0.979 -0.000
  0.000  0.000  0.004 -0.000  0.984
   spin  2
    eigenvalues: 
  0.309  0.325  0.374  0.506  0.990
    eigenvectors:
  0.000  0.430  0.000  0.338  0.232
  0.000  0.435  0.000  0.017  0.547
  0.822  0.000  0.178  0.000  0.000
  0.000  0.135  0.000  0.645  0.220
  0.178  0.000  0.822  0.000  0.000
    occupations:
  0.540  0.251 -0.000 -0.066  0.000
  0.251  0.692 -0.000 -0.212  0.000
 -0.000 -0.000  0.321  0.000 -0.025
 -0.066 -0.212  0.000  0.588 -0.000
  0.000  0.000 -0.025 -0.000  0.362
atomic mag. moment =   2.42157
N of occupied +U levels =   59.116892
 --- exit write_ns ---

     RESET ns to initial values (iter <= mixing_fixed_ns)


     Threshold (ethr) on eigenvalues was too large:
     Diagonalizing with lowered threshold

     CG style diagonalization
     c_bands:  1 eigenvalues not converged
     c_bands:  1 eigenvalues not converged
     c_bands:  2 eigenvalues not converged
     c_bands:  1 eigenvalues not converged
     ethr =  3.30E-08,  avg # of iterations = 14.8

     RESET ns to initial values (iter <= mixing_fixed_ns)


     total cpu time spent up to now is      764.0 secs

     total energy              =   -5930.10579125 Ry
     estimated scf accuracy    <       0.00000654 Ry

     total magnetization       =    -0.00 Bohr mag/cell
     absolute magnetization    =    25.87 Bohr mag/cell

     iteration #  2     ecut=    90.00 Ry     beta= 0.50
     CG style diagonalization
     c_bands:  1 eigenvalues not converged
     ethr =  1.95E-09,  avg # of iterations = 14.4

     RESET ns to initial values (iter <= mixing_fixed_ns)


     total cpu time spent up to now is      963.9 secs

     total energy              =   -5930.10598430 Ry
     estimated scf accuracy    <       0.00001832 Ry

     total magnetization       =    -0.00 Bohr mag/cell
     absolute magnetization    =    25.86 Bohr mag/cell

     iteration #  3     ecut=    90.00 Ry     beta= 0.50
     CG style diagonalization
     c_bands:  1 eigenvalues not converged
     ethr =  1.95E-09,  avg # of iterations =  4.2

     RESET ns to initial values (iter <= mixing_fixed_ns)


     total cpu time spent up to now is     1023.3 secs

     total energy              =   -5930.10599233 Ry
     estimated scf accuracy    <       0.00000176 Ry

     total magnetization       =    -0.00 Bohr mag/cell
     absolute magnetization    =    25.87 Bohr mag/cell

     iteration #  4     ecut=    90.00 Ry     beta= 0.50
     CG style diagonalization
     c_bands:  2 eigenvalues not converged
     ethr =  5.23E-10,  avg # of iterations =  5.5

     RESET ns to initial values (iter <= mixing_fixed_ns)


     total cpu time spent up to now is     1102.1 secs

     total energy              =   -5930.10599642 Ry
     estimated scf accuracy    <       0.00000187 Ry

     total magnetization       =     0.00 Bohr mag/cell
     absolute magnetization    =    25.87 Bohr mag/cell

     iteration #  5     ecut=    90.00 Ry     beta= 0.50
     CG style diagonalization
     ethr =  5.23E-10,  avg # of iterations =  4.1

     RESET ns to initial values (iter <= mixing_fixed_ns)

 
     Magnetic moment per site  (integrated on atomic sphere of radius R)
     atom   1 (R=0.182)  charge=  7.0417  magn=  0.0007
     atom   2 (R=0.182)  charge=  7.0417  magn=  0.0007
     atom   3 (R=0.182)  charge=  7.0417  magn= -0.0006
     atom   4 (R=0.182)  charge=  7.0417  magn= -0.0006
     atom   5 (R=0.182)  charge=  7.0417  magn=  0.0007
     atom   6 (R=0.182)  charge=  7.0417  magn=  0.0007
     atom   7 (R=0.182)  charge=  7.0417  magn= -0.0006
     atom   8 (R=0.182)  charge=  7.0417  magn= -0.0006
     atom   9 (R=0.134)  charge= 13.6929  magn=  2.5832
     atom  10 (R=0.134)  charge= 13.6915  magn= -2.5832
     atom  11 (R=0.134)  charge= 13.6929  magn=  2.5832
     atom  12 (R=0.134)  charge= 13.6915  magn= -2.5832
     atom  13 (R=0.134)  charge= 13.7249  magn= -2.5287
     atom  14 (R=0.134)  charge= 13.7249  magn= -2.5287
     atom  15 (R=0.134)  charge= 13.7262  magn=  2.5291
     atom  16 (R=0.134)  charge= 13.7262  magn=  2.5291
     atom  17 (R=0.134)  charge=  4.9959  magn=  0.0767
     atom  18 (R=0.134)  charge=  4.9959  magn=  0.0767
     atom  19 (R=0.134)  charge=  4.9959  magn= -0.0766
     atom  20 (R=0.134)  charge=  4.9959  magn= -0.0766
     atom  21 (R=0.134)  charge=  4.9959  magn=  0.0767
     atom  22 (R=0.134)  charge=  4.9959  magn=  0.0767
     atom  23 (R=0.134)  charge=  4.9959  magn= -0.0766
     atom  24 (R=0.134)  charge=  4.9959  magn= -0.0766
     atom  25 (R=0.134)  charge=  4.9575  magn= -0.1598
     atom  26 (R=0.134)  charge=  4.9575  magn= -0.1598
     atom  27 (R=0.134)  charge=  4.9574  magn=  0.1597
     atom  28 (R=0.134)  charge=  4.9574  magn=  0.1597
     atom  29 (R=0.134)  charge=  4.9575  magn= -0.1598
     atom  30 (R=0.134)  charge=  4.9575  magn= -0.1598
     atom  31 (R=0.134)  charge=  4.9574  magn=  0.1597
     atom  32 (R=0.134)  charge=  4.9574  magn=  0.1597
     atom  33 (R=0.134)  charge=  4.9910  magn= -0.0075
     atom  34 (R=0.134)  charge=  4.9910  magn= -0.0075
     atom  35 (R=0.134)  charge=  4.9911  magn=  0.0078
     atom  36 (R=0.134)  charge=  4.9911  magn=  0.0078

     total cpu time spent up to now is     1159.3 secs

     End of self-consistent calculation
 --- enter write_ns ---
 LDA+U parameters:
U( 2)     =  3.00000000
U( 3)     =  3.00000000
atom    9   Tr[ns(na)] (up, down, total) =   4.93009  2.42079  7.35088
   spin  1
    eigenvalues: 
  0.968  0.984  0.990  0.993  0.994
    eigenvectors:
  0.003  0.212  0.000  0.778  0.007
  0.979  0.013  0.001  0.000  0.007
  0.006  0.001  0.624  0.002  0.368
  0.012  0.726  0.017  0.219  0.026
  0.000  0.049  0.357  0.001  0.592
    occupations:
  0.991  0.001 -0.000 -0.004 -0.001
  0.001  0.968 -0.002  0.002 -0.001
 -0.000 -0.002  0.992 -0.000  0.002
 -0.004  0.002 -0.000  0.986 -0.002
 -0.001 -0.001  0.002 -0.002  0.992
   spin  2
    eigenvalues: 
  0.233  0.238  0.384  0.575  0.991
    eigenvectors:
  0.772  0.172  0.038  0.019  0.000
  0.003  0.000  0.174  0.814  0.008
  0.034  0.212  0.007  0.021  0.725
  0.127  0.066  0.673  0.129  0.005
  0.063  0.550  0.108  0.018  0.261
    occupations:
  0.246  0.031  0.002  0.041  0.018
  0.031  0.544 -0.019  0.054  0.055
  0.002 -0.019  0.792  0.075 -0.318
  0.041  0.054  0.075  0.383  0.027
  0.018  0.055 -0.318  0.027  0.456
atomic mag. moment =   2.50930
atom   10   Tr[ns(na)] (up, down, total) =   2.42019  4.93045  7.35064
   spin  1
    eigenvalues: 
  0.232  0.237  0.384  0.575  0.991
    eigenvectors:
  0.772  0.172  0.037  0.019  0.000
  0.003  0.000  0.176  0.812  0.008
  0.034  0.211  0.007  0.021  0.727
  0.127  0.066  0.671  0.130  0.005
  0.064  0.550  0.109  0.018  0.259
    occupations:
  0.245 -0.031  0.003  0.041 -0.018
 -0.031  0.544  0.019 -0.054  0.055
  0.003  0.019  0.794  0.075  0.317
  0.041 -0.054  0.075  0.383 -0.028
 -0.018  0.055  0.317 -0.028  0.454
   spin  2
    eigenvalues: 
  0.968  0.984  0.990  0.993  0.994
    eigenvectors:
  0.003  0.212  0.000  0.778  0.007
  0.979  0.013  0.001  0.000  0.007
  0.006  0.001  0.626  0.002  0.366
  0.012  0.725  0.017  0.219  0.026
  0.000  0.049  0.356  0.001  0.593
    occupations:
  0.991 -0.001 -0.000 -0.004  0.001
 -0.001  0.969  0.002 -0.002 -0.001
 -0.000  0.002  0.992 -0.000 -0.002
 -0.004 -0.002 -0.000  0.986  0.002
  0.001 -0.001 -0.002  0.002  0.992
atomic mag. moment =  -2.51027
atom   11   Tr[ns(na)] (up, down, total) =   4.93009  2.42079  7.35088
   spin  1
    eigenvalues: 
  0.968  0.984  0.990  0.993  0.994
    eigenvectors:
  0.003  0.212  0.000  0.778  0.007
  0.979  0.013  0.001  0.000  0.007
  0.006  0.001  0.624  0.002  0.368
  0.012  0.726  0.017  0.219  0.026
  0.000  0.049  0.357  0.001  0.592
    occupations:
  0.991  0.001  0.000 -0.004  0.001
  0.001  0.968  0.002  0.002  0.001
  0.000  0.002  0.992  0.000  0.002
 -0.004  0.002  0.000  0.986  0.002
  0.001  0.001  0.002  0.002  0.992
   spin  2
    eigenvalues: 
  0.233  0.238  0.384  0.575  0.991
    eigenvectors:
  0.772  0.172  0.038  0.019  0.000
  0.003  0.000  0.174  0.814  0.008
  0.034  0.212  0.007  0.021  0.725
  0.127  0.066  0.673  0.129  0.005
  0.063  0.550  0.108  0.018  0.261
    occupations:
  0.246  0.031 -0.002  0.041 -0.018
  0.031  0.544  0.019  0.054 -0.055
 -0.002  0.019  0.792 -0.075 -0.318
  0.041  0.054 -0.075  0.383 -0.027
 -0.018 -0.055 -0.318 -0.027  0.456
atomic mag. moment =   2.50930
atom   12   Tr[ns(na)] (up, down, total) =   2.42019  4.93045  7.35064
   spin  1
    eigenvalues: 
  0.232  0.237  0.384  0.575  0.991
    eigenvectors:
  0.772  0.172  0.037  0.019  0.000
  0.003  0.000  0.176  0.812  0.008
  0.034  0.211  0.007  0.021  0.727
  0.127  0.066  0.671  0.130  0.005
  0.064  0.550  0.109  0.018  0.259
    occupations:
  0.245 -0.031 -0.003  0.041  0.018
 -0.031  0.544 -0.019 -0.054 -0.055
 -0.003 -0.019  0.794 -0.075  0.317
  0.041 -0.054 -0.075  0.383  0.028
  0.018 -0.055  0.317  0.028  0.454
   spin  2
    eigenvalues: 
  0.968  0.984  0.990  0.993  0.994
    eigenvectors:
  0.003  0.212  0.000  0.778  0.007
  0.979  0.013  0.001  0.000  0.007
  0.006  0.001  0.626  0.002  0.366
  0.012  0.725  0.017  0.219  0.026
  0.000  0.049  0.356  0.001  0.593
    occupations:
  0.991 -0.001  0.000 -0.004 -0.001
 -0.001  0.969 -0.002 -0.002  0.001
  0.000 -0.002  0.992  0.000 -0.002
 -0.004 -0.002  0.000  0.986 -0.002
 -0.001  0.001 -0.002 -0.002  0.992
atomic mag. moment =  -2.51027
atom   13   Tr[ns(na)] (up, down, total) =   2.50355  4.92501  7.42856
   spin  1
    eigenvalues: 
  0.309  0.325  0.374  0.506  0.990
    eigenvectors:
  0.000  0.430  0.000  0.337  0.232
  0.000  0.435  0.000  0.017  0.548
  0.822  0.000  0.178  0.000  0.000
  0.000  0.135  0.000  0.645  0.220
  0.178  0.000  0.822  0.000  0.000
    occupations:
  0.541 -0.251  0.000 -0.066  0.000
 -0.251  0.692 -0.000  0.212  0.000
  0.000 -0.000  0.321 -0.000  0.025
 -0.066  0.212 -0.000  0.588 -0.000
  0.000  0.000  0.025 -0.000  0.362
   spin  2
    eigenvalues: 
  0.973  0.982  0.986  0.991  0.993
    eigenvectors:
  0.382  0.000  0.612  0.007  0.000
  0.030  0.000  0.055  0.915  0.000
  0.000  0.166  0.000  0.000  0.834
  0.588  0.000  0.333  0.079  0.000
  0.000  0.834  0.000  0.000  0.166
    occupations:
  0.981  0.001 -0.000 -0.006  0.000
  0.001  0.990 -0.000  0.003  0.000
 -0.000 -0.000  0.991  0.000 -0.004
 -0.006  0.003  0.000  0.979 -0.000
  0.000  0.000 -0.004 -0.000  0.984
atomic mag. moment =  -2.42146
atom   14   Tr[ns(na)] (up, down, total) =   2.50355  4.92501  7.42856
   spin  1
    eigenvalues: 
  0.309  0.325  0.374  0.506  0.990
    eigenvectors:
  0.000  0.430  0.000  0.337  0.232
  0.000  0.435  0.000  0.017  0.548
  0.822  0.000  0.178  0.000  0.000
  0.000  0.135  0.000  0.645  0.220
  0.178  0.000  0.822  0.000  0.000
    occupations:
  0.541 -0.251  0.000 -0.066  0.000
 -0.251  0.692 -0.000  0.212  0.000
  0.000 -0.000  0.321 -0.000  0.025
 -0.066  0.212 -0.000  0.588 -0.000
  0.000  0.000  0.025 -0.000  0.362
   spin  2
    eigenvalues: 
  0.973  0.982  0.986  0.991  0.993
    eigenvectors:
  0.382  0.000  0.612  0.007  0.000
  0.030  0.000  0.055  0.915  0.000
  0.000  0.166  0.000  0.000  0.834
  0.588  0.000  0.333  0.079  0.000
  0.000  0.834  0.000  0.000  0.166
    occupations:
  0.981  0.001 -0.000 -0.006  0.000
  0.001  0.990 -0.000  0.003  0.000
 -0.000 -0.000  0.991  0.000 -0.004
 -0.006  0.003  0.000  0.979 -0.000
  0.000  0.000 -0.004 -0.000  0.984
atomic mag. moment =  -2.42146
atom   15   Tr[ns(na)] (up, down, total) =   4.92507  2.50333  7.42840
   spin  1
    eigenvalues: 
  0.973  0.982  0.986  0.991  0.993
    eigenvectors:
  0.382  0.000  0.611  0.007  0.000
  0.030  0.000  0.056  0.915  0.000
  0.000  0.166  0.000  0.000  0.834
  0.588  0.000  0.333  0.079  0.000
  0.000  0.834  0.000  0.000  0.166
    occupations:
  0.981 -0.001 -0.000 -0.006  0.000
 -0.001  0.990 -0.000 -0.003  0.000
 -0.000 -0.000  0.991  0.000  0.004
 -0.006 -0.003  0.000  0.979 -0.000
  0.000  0.000  0.004 -0.000  0.984
   spin  2
    eigenvalues: 
  0.309  0.325  0.374  0.506  0.990
    eigenvectors:
  0.000  0.430  0.000  0.338  0.232
  0.000  0.435  0.000  0.017  0.547
  0.822  0.000  0.178  0.000  0.000
  0.000  0.135  0.000  0.645  0.220
  0.178  0.000  0.822  0.000  0.000
    occupations:
  0.540  0.251 -0.000 -0.066  0.000
  0.251  0.692 -0.000 -0.212  0.000
 -0.000 -0.000  0.321  0.000 -0.025
 -0.066 -0.212  0.000  0.588 -0.000
  0.000  0.000 -0.025 -0.000  0.362
atomic mag. moment =   2.42174
atom   16   Tr[ns(na)] (up, down, total) =   4.92507  2.50333  7.42840
   spin  1
    eigenvalues: 
  0.973  0.982  0.986  0.991  0.993
    eigenvectors:
  0.382  0.000  0.611  0.007  0.000
  0.030  0.000  0.056  0.915  0.000
  0.000  0.166  0.000  0.000  0.834
  0.588  0.000  0.333  0.079  0.000
  0.000  0.834  0.000  0.000  0.166
    occupations:
  0.981 -0.001 -0.000 -0.006  0.000
 -0.001  0.990 -0.000 -0.003  0.000
 -0.000 -0.000  0.991  0.000  0.004
 -0.006 -0.003  0.000  0.979 -0.000
  0.000  0.000  0.004 -0.000  0.984
   spin  2
    eigenvalues: 
  0.309  0.325  0.374  0.506  0.990
    eigenvectors:
  0.000  0.430  0.000  0.338  0.232
  0.000  0.435  0.000  0.017  0.547
  0.822  0.000  0.178  0.000  0.000
  0.000  0.135  0.000  0.645  0.220
  0.178  0.000  0.822  0.000  0.000
    occupations:
  0.540  0.251 -0.000 -0.066  0.000
  0.251  0.692 -0.000 -0.212  0.000
 -0.000 -0.000  0.321  0.000 -0.025
 -0.066 -0.212  0.000  0.588 -0.000
  0.000  0.000 -0.025 -0.000  0.362
atomic mag. moment =   2.42174
N of occupied +U levels =   59.116969
 --- exit write_ns ---

 ------ SPIN UP ------------


          k = 0.0000 0.0000 0.0000 ( 46851 PWs)   bands (ev):

   -88.7479 -88.7479 -88.2720 -88.2719 -85.2970 -85.2970 -84.8964 -84.8963
   -52.7187 -52.7187 -52.2007 -52.2006 -51.5940 -51.5940 -51.5423 -51.5423
   -51.3904 -51.3904 -50.8751 -50.8751 -48.8498 -48.8498 -48.5074 -48.5073
   -48.4602 -48.4601 -48.4397 -48.4397 -48.1836 -48.1835 -47.9967 -47.9967
   -23.7337 -23.7295 -23.6960 -23.6918 -23.6869 -23.6825 -23.6542 -23.6497
    -9.1584  -9.0803  -8.6041  -8.5499  -8.4050  -8.3769  -8.2992  -8.2281
    -8.2098  -8.1678  -8.1634  -8.0426  -8.0370  -7.9398  -7.8561  -7.7645
    -7.7492  -7.7446  -7.7131  -7.6243  -6.0675  -6.0196  -5.9896  -5.9540
    -5.8395  -5.7659  -5.7638  -5.7503  -5.7501  -5.7001  -5.6881  -5.6850
    -5.6350  -5.6208  -5.6075  -5.5171  -5.4885  -5.4548  -5.3782  -5.3152
    -5.2736  -5.2723  -5.1996  -5.0705   2.4166   2.4393   2.7726   2.7732
     2.9495   2.9544   3.1001   3.1630   3.2557   3.2671   3.2894   3.3103
     3.3126   3.3578   3.5514   3.5609   3.5986   3.8787   4.3557   4.3605
     4.4674   4.4682   4.5400   4.5530   4.6974   5.0230   5.0428   5.1707
     5.1813   5.2518   5.5415   5.6268   5.6517   5.6903   5.7874   5.8428
     5.8565   5.9910   6.0049   6.0098   6.1274   6.3243   6.3291   6.4513
     6.5414   6.6166   6.6509   6.6750   6.7901   6.8103   6.9132   7.0246
     7.0448   7.0952   7.1194   7.1393   7.2641   7.2651   7.3204   7.3328
     7.3547   7.5598   7.5704   7.5757   7.6032   7.6399   7.7403   7.7852
     7.7866   7.8742   7.8909   7.9402   7.9958   8.0413   8.1504   8.3632
     8.3933   8.4507   8.4928   8.5028   8.7450   8.7504   8.9573   9.0012
     9.8291   9.9393  10.0485  10.0611  10.4709  10.4873  10.5021  10.7323
    10.7897  10.8698  10.9586  10.9816  11.3105  11.3401  12.2536  12.2614
    12.9236  13.6025  14.3183  14.3958  14.4599  14.9365  14.9807  15.2423
    15.3843  15.5489  15.5726  15.6089  15.6500  15.7350  15.7456  16.1066
    16.3427  16.3675  16.4095  16.4752  16.6637  16.7509  16.7713  16.9041
    17.0332  17.1202  17.1388  17.1858  17.2913  17.4297  17.4766  17.5525
    17.6407  17.9870  18.0085  18.0524  18.1832  18.3001  18.3308  18.7219
    18.7271  18.8090  18.9470  18.9944  19.1666  19.2184  19.2601  19.2990
    19.3531  19.3713  19.5957  19.6536  19.6714  20.1003  20.4298  20.8870

          k = 0.0000 0.0000 0.1701 ( 46807 PWs)   bands (ev):

   -88.7479 -88.7479 -88.2720 -88.2719 -85.2970 -85.2970 -84.8964 -84.8963
   -52.7187 -52.7187 -52.2007 -52.2006 -51.5940 -51.5940 -51.5423 -51.5423
   -51.3904 -51.3904 -50.8751 -50.8751 -48.8498 -48.8498 -48.5073 -48.5073
   -48.4602 -48.4601 -48.4397 -48.4397 -48.1836 -48.1835 -47.9967 -47.9967
   -23.7303 -23.7262 -23.6935 -23.6898 -23.6893 -23.6855 -23.6572 -23.6529
    -9.1104  -9.0351  -8.5932  -8.5537  -8.4556  -8.3802  -8.3702  -8.2981
    -8.2761  -8.1440  -8.1209  -8.0692  -8.0349  -7.9752  -7.8527  -7.8177
    -7.7962  -7.7671  -7.7201  -7.6675  -6.0580  -5.9580  -5.9506  -5.9008
    -5.8314  -5.7580  -5.7408  -5.6998  -5.6876  -5.6818  -5.6516  -5.6398
    -5.6221  -5.6131  -5.6041  -5.5535  -5.4208  -5.3947  -5.3773  -5.3228
    -5.3009  -5.2798  -5.1861  -5.0900   2.5447   2.5715   2.8081   2.8095
     2.9623   2.9649   3.0989   3.1631   3.2436   3.2496   3.2689   3.3039
     3.3385   3.3607   3.4887   3.5221   3.6373   3.8959   4.2457   4.2662
     4.4399   4.4432   4.6111   4.6274   4.7157   4.9539   4.9788   4.9995
     5.0129   5.1898   5.4413   5.5714   5.6448   5.6988   5.7962   5.8135
     5.8343   5.9291   6.0291   6.0331   6.1613   6.3144   6.3983   6.4221
     6.5106   6.6094   6.6297   6.6911   6.7677   6.8460   6.8835   6.9772
     7.0009   7.0406   7.0840   7.1934   7.2145   7.2850   7.3024   7.3654
     7.3895   7.5299   7.5418   7.6034   7.6553   7.7189   7.7212   7.7843
     7.8362   7.8903   7.9004   7.9346   8.0381   8.1291   8.1696   8.3171
     8.3328   8.3470   8.3816   8.5048   8.6735   8.7168   8.9765   9.0411
     9.8759   9.9643  10.0493  10.0536  10.4625  10.4798  10.4876  10.7501
    10.7964  10.8841  10.9482  10.9814  11.3263  11.3539  12.0380  12.0489
    13.1889  13.6920  14.5106  14.5452  14.6453  14.9207  14.9986  15.0848
    15.5088  15.5494  15.6272  15.6597  15.7075  15.9067  16.0555  16.0639
    16.3360  16.4799  16.5156  16.6053  16.6404  16.7661  16.8683  16.9154
    16.9299  17.0778  17.1414  17.2621  17.3503  17.5126  17.5740  17.5886
    17.6688  17.7877  17.9685  18.0712  18.0740  18.0913  18.2235  18.5384
    18.6018  18.6484  18.7403  18.8638  18.8707  19.0527  19.0853  19.1174
    19.3415  19.4438  19.6824  19.6973  19.8316  20.3745  20.4343  20.7588

          k = 0.0000 0.0000 0.3402 ( 46787 PWs)   bands (ev):

   -88.7479 -88.7479 -88.2720 -88.2719 -85.2970 -85.2970 -84.8964 -84.8964
   -52.7187 -52.7187 -52.2007 -52.2006 -51.5940 -51.5940 -51.5423 -51.5423
   -51.3904 -51.3904 -50.8751 -50.8751 -48.8498 -48.8498 -48.5073 -48.5073
   -48.4602 -48.4601 -48.4397 -48.4397 -48.1836 -48.1835 -47.9968 -47.9967
   -23.7210 -23.7172 -23.6977 -23.6937 -23.6863 -23.6824 -23.6653 -23.6613
    -8.9838  -8.9124  -8.6614  -8.5539  -8.5492  -8.5191  -8.4103  -8.3140
    -8.2631  -8.2071  -8.1092  -8.0661  -8.0588  -8.0293  -7.9347  -7.9153
    -7.8522  -7.8113  -7.7716  -7.7457  -5.9901  -5.9387  -5.8143  -5.7824
    -5.7472  -5.7322  -5.6947  -5.6922  -5.6461  -5.6230  -5.5926  -5.5875
    -5.5719  -5.5709  -5.5573  -5.5227  -5.3896  -5.3599  -5.3499  -5.3348
    -5.3043  -5.3021  -5.1469  -5.1182   2.7923   2.8105   2.9159   2.9538
     2.9998   3.0029   3.0979   3.1687   3.2130   3.2371   3.2474   3.2939
     3.3485   3.3644   3.4033   3.4297   3.7305   3.9706   4.1722   4.2396
     4.3861   4.3982   4.5090   4.5601   4.5995   4.6477   4.7835   4.8228
     4.8508   5.0964   5.2867   5.4670   5.6220   5.7049   5.7321   5.7815
     5.8851   5.9422   5.9802   6.0425   6.2056   6.2931   6.3762   6.3964
     6.4308   6.5362   6.6196   6.6485   6.7444   6.8756   6.8933   6.9052
     6.9721   7.0448   7.0994   7.1846   7.2516   7.2673   7.3604   7.4165
     7.4439   7.4957   7.6099   7.6112   7.6494   7.6518   7.6860   7.7479
     7.8062   7.8957   7.9118   7.9693   7.9885   8.0185   8.0218   8.1813
     8.1826   8.3504   8.5156   8.5639   8.8323   8.8839   9.0091   9.1190
     9.9378   9.9424  10.0423  10.0886  10.4282  10.4614  10.4731  10.7261
    10.8120  10.8994  10.9315  10.9605  11.3693  11.3847  11.5905  11.6152
    13.7855  13.9149  14.5963  14.8157  14.9631  15.1207  15.1528  15.2569
    15.6880  15.7032  15.7550  15.9100  15.9620  16.1822  16.2185  16.2386
    16.3299  16.4542  16.5090  16.5987  16.6334  16.6686  16.8698  16.9149
    17.0282  17.0888  17.1211  17.1802  17.3125  17.5268  17.5606  17.5964
    17.6121  17.6614  17.7479  17.7856  17.8122  18.0989  18.1261  18.1725
    18.3430  18.3587  18.5751  18.7791  18.8094  18.8447  19.0499  19.1747
    19.3264  19.3683  19.4652  19.6253  19.9354  20.3050  20.4928  20.8513

          k = 0.0000 0.0000-0.5103 ( 46692 PWs)   bands (ev):

   -88.7479 -88.7479 -88.2720 -88.2719 -85.2970 -85.2969 -84.8964 -84.8964
   -52.7187 -52.7187 -52.2007 -52.2006 -51.5940 -51.5940 -51.5423 -51.5423
   -51.3904 -51.3904 -50.8751 -50.8750 -48.8498 -48.8498 -48.5073 -48.5073
   -48.4602 -48.4601 -48.4397 -48.4396 -48.1835 -48.1835 -47.9967 -47.9967
   -23.7095 -23.7085 -23.7065 -23.7040 -23.6767 -23.6753 -23.6722 -23.6722
    -8.8319  -8.8164  -8.7451  -8.7395  -8.5114  -8.4986  -8.4581  -8.3858
    -8.2163  -8.1982  -8.0837  -8.0641  -8.0449  -8.0374  -8.0315  -8.0258
    -7.8607  -7.8273  -7.8167  -7.7817  -5.9300  -5.9232  -5.7382  -5.7224
    -5.7221  -5.7213  -5.6767  -5.6564  -5.6327  -5.6240  -5.6128  -5.5990
    -5.5613  -5.5569  -5.4727  -5.4306  -5.4283  -5.3906  -5.3344  -5.3343
    -5.2934  -5.2917  -5.1247  -5.1206   2.8700   2.8702   2.9947   3.0093
     3.0181   3.1003   3.1740   3.2035   3.2131   3.2175   3.2312   3.2678
     3.3443   3.3679   3.3749   3.3925   3.9579   4.0440   4.1747   4.1981
     4.2198   4.3081   4.3591   4.4548   4.4739   4.5531   4.7226   4.7440
     4.8043   5.0604   5.2222   5.4447   5.5928   5.6749   5.7101   5.7668
     5.8686   5.9078   5.9700   6.0970   6.2277   6.2807   6.3719   6.3724
     6.4323   6.4954   6.5609   6.5984   6.7749   6.7878   6.8569   6.8850
     6.9107   7.1206   7.1402   7.1812   7.3511   7.4078   7.4341   7.4577
     7.4855   7.5202   7.5490   7.5764   7.5804   7.6346   7.6553   7.7538
     7.7654   7.7968   7.7993   7.8938   7.9658   8.0077   8.1053   8.1323
     8.1786   8.3598   8.4155   8.4327   9.0096   9.0334   9.2159   9.2837
     9.9195   9.9446  10.0384  10.1055  10.4144  10.4317  10.4504  10.6356
    10.8186  10.8916  10.9335  10.9483  11.3451  11.3909  11.4007  11.4078
    14.1298  14.3262  14.3708  14.4942  15.4472  15.4678  15.6242  15.6564
    15.6786  15.7046  15.8008  15.8398  16.0392  16.0721  16.3028  16.3763
    16.4120  16.4240  16.5616  16.5783  16.5943  16.6060  16.6683  16.6714
    16.9038  16.9149  17.0962  17.0985  17.4899  17.4916  17.5256  17.5263
    17.5361  17.5406  17.7861  17.8461  17.8507  17.8816  18.0598  18.0693
    18.4495  18.4559  18.5287  18.5391  18.6308  18.6332  19.0658  19.1860
    19.2824  19.4337  19.6871  19.8022  19.9579  20.0804  20.2003  20.6190

          k = 0.0000 0.1170 0.0000 ( 46814 PWs)   bands (ev):

   -88.7479 -88.7479 -88.2720 -88.2719 -85.2970 -85.2970 -84.8964 -84.8963
   -52.7187 -52.7187 -52.2007 -52.2006 -51.5940 -51.5940 -51.5423 -51.5423
   -51.3904 -51.3904 -50.8751 -50.8751 -48.8498 -48.8498 -48.5073 -48.5073
   -48.4602 -48.4601 -48.4397 -48.4397 -48.1836 -48.1835 -47.9967 -47.9967
   -23.7327 -23.7307 -23.6949 -23.6928 -23.6859 -23.6837 -23.6529 -23.6507
    -9.1410  -9.1023  -8.5870  -8.5604  -8.3978  -8.3836  -8.2889  -8.2600
    -8.1909  -8.1736  -8.1394  -8.0874  -7.9960  -7.9579  -7.8397  -7.8014
    -7.7458  -7.7449  -7.6779  -7.6388  -6.0313  -6.0177  -5.9762  -5.9406
    -5.8948  -5.8640  -5.7643  -5.7611  -5.7118  -5.6928  -5.6779  -5.6662
    -5.6317  -5.6152  -5.5765  -5.5127  -5.5028  -5.4391  -5.3610  -5.3443
    -5.3249  -5.2443  -5.1615  -5.0929   2.4222   2.4335   2.7728   2.7731
     2.9505   2.9529   3.1138   3.1447   3.2595   3.2653   3.3052   3.3116
     3.3128   3.3414   3.5590   3.5610   3.6489   3.7858   4.3578   4.3608
     4.4674   4.4677   4.5435   4.5500   4.8365   5.0240   5.0389   5.0998
     5.1803   5.1811   5.5629   5.6054   5.6671   5.6774   5.7933   5.8328
     5.9092   5.9802   6.0225   6.0776   6.1054   6.2934   6.3655   6.4243
     6.4516   6.5099   6.7047   6.7357   6.8001   6.8008   6.9392   7.0247
     7.0566   7.1073   7.1551   7.1627   7.2266   7.2660   7.2847   7.2884
     7.4211   7.5185   7.5616   7.5771   7.6439   7.6492   7.7497   7.7712
     7.8087   7.8613   7.8876   7.9282   8.0463   8.0852   8.1314   8.2448
     8.4110   8.4394   8.4943   8.4989   8.7490   8.7519   8.9692   8.9914
     9.8713   9.9233  10.0514  10.0578  10.4893  10.4979  10.5426  10.6810
    10.7941  10.8214  10.9763  10.9829  11.3194  11.3340  12.2555  12.2594
    13.0479  13.3626  14.4086  14.4394  14.5308  14.8119  15.0796  15.3060
    15.3150  15.4723  15.5722  15.6039  15.6283  15.7076  15.7345  16.0347
    16.4266  16.4633  16.4827  16.6087  16.6918  16.7136  16.7746  16.8559
    16.9405  17.1143  17.1268  17.1329  17.2584  17.3910  17.5917  17.6132
    17.8096  17.8401  17.9402  17.9878  18.1670  18.2105  18.4164  18.6420
    18.7093  18.7497  18.7985  18.9045  19.1786  19.2305  19.2468  19.3044
    19.3809  19.5126  19.6627  19.7969  19.8726  20.2123  20.4721  20.6257

          k = 0.0000 0.1170 0.1701 ( 46820 PWs)   bands (ev):

   -88.7479 -88.7479 -88.2720 -88.2719 -85.2970 -85.2970 -84.8964 -84.8964
   -52.7187 -52.7187 -52.2007 -52.2006 -51.5940 -51.5940 -51.5423 -51.5423
   -51.3904 -51.3904 -50.8751 -50.8751 -48.8498 -48.8498 -48.5073 -48.5073
   -48.4602 -48.4601 -48.4397 -48.4397 -48.1836 -48.1835 -47.9967 -47.9967
   -23.7293 -23.7273 -23.6923 -23.6903 -23.6888 -23.6867 -23.6560 -23.6538
    -9.0936  -9.0563  -8.5797  -8.5602  -8.4431  -8.4089  -8.3553  -8.3317
    -8.2156  -8.1578  -8.1193  -8.1001  -8.0133  -7.9878  -7.8410  -7.8243
    -7.7922  -7.7794  -7.7020  -7.6773  -6.0164  -5.9582  -5.9416  -5.8974
    -5.8902  -5.8385  -5.7028  -5.6962  -5.6838  -5.6567  -5.6497  -5.6445
    -5.6281  -5.6265  -5.5630  -5.5042  -5.4570  -5.4400  -5.3537  -5.3367
    -5.3179  -5.2257  -5.1811  -5.1127   2.5512   2.5646   2.8084   2.8091
     2.9629   2.9642   3.1123   3.1434   3.2478   3.2530   3.2812   3.2997
     3.3380   3.3488   3.5030   3.5179   3.6815   3.8062   4.2546   4.2635
     4.4418   4.4429   4.6195   4.6279   4.8262   4.9559   4.9740   4.9911
     5.0160   5.0912   5.4738   5.5416   5.6475   5.6765   5.7891   5.8057
     5.8780   5.9231   6.0381   6.0681   6.1759   6.3158   6.3502   6.4051
     6.5305   6.5808   6.6025   6.6415   6.8383   6.8650   6.8923   6.9903
     6.9999   7.0493   7.1088   7.1558   7.2106   7.2541   7.3250   7.3525
     7.4228   7.4853   7.5796   7.6080   7.6923   7.7118   7.7459   7.7913
     7.8213   7.8347   7.9311   7.9590   8.0322   8.0847   8.2018   8.2744
     8.3369   8.3417   8.4033   8.4585   8.6868   8.7084   8.9952   9.0272
     9.9137   9.9550  10.0486  10.0509  10.4676  10.4806  10.5482  10.6871
    10.8099  10.8468  10.9652  10.9780  11.3341  11.3478  12.0404  12.0459
    13.2863  13.5263  14.5666  14.6172  14.6586  14.8849  14.9723  15.0538
    15.5248  15.5921  15.6001  15.7069  15.7692  15.7988  15.9058  16.1317
    16.3737  16.5514  16.6050  16.6367  16.7036  16.7095  16.7721  16.8864
    16.9436  17.1098  17.1365  17.1618  17.3739  17.4740  17.5081  17.5819
    17.7979  17.8675  17.9407  17.9690  18.1273  18.1960  18.3333  18.3794
    18.4713  18.6585  18.6761  18.7544  18.8770  19.0102  19.0618  19.0988
    19.3207  19.3807  19.7998  20.0048  20.1304  20.3695  20.4957  20.6272

          k = 0.0000 0.1170 0.3402 ( 46815 PWs)   bands (ev):

   -88.7479 -88.7479 -88.2720 -88.2719 -85.2970 -85.2970 -84.8964 -84.8964
   -52.7187 -52.7187 -52.2007 -52.2006 -51.5940 -51.5940 -51.5423 -51.5423
   -51.3904 -51.3904 -50.8751 -50.8751 -48.8498 -48.8498 -48.5073 -48.5073
   -48.4602 -48.4601 -48.4397 -48.4397 -48.1836 -48.1835 -47.9968 -47.9967
   -23.7202 -23.7183 -23.6968 -23.6948 -23.6852 -23.6832 -23.6642 -23.6622
    -8.9680  -8.9326  -8.6423  -8.5928  -8.5401  -8.5204  -8.3716  -8.3248
    -8.2570  -8.2284  -8.1019  -8.0833  -8.0442  -8.0310  -7.9315  -7.9220
    -7.8410  -7.8216  -7.7634  -7.7509  -5.9517  -5.9181  -5.8648  -5.8542
    -5.7366  -5.7346  -5.6773  -5.6698  -5.6579  -5.6239  -5.5993  -5.5847
    -5.5556  -5.5371  -5.5362  -5.4987  -5.4446  -5.4139  -5.3753  -5.3546
    -5.2463  -5.2143  -5.1764  -5.1434   2.7975   2.8066   2.9234   2.9427
     2.9963   3.0011   3.1190   3.1531   3.2200   3.2320   3.2660   3.2907
     3.3408   3.3489   3.4141   3.4260   3.7744   3.8881   4.1924   4.2232
     4.3972   4.4031   4.5101   4.5272   4.6453   4.6612   4.8179   4.8262
     4.8735   5.0130   5.3572   5.4762   5.6019   5.6204   5.7380   5.7599
     5.9079   5.9323   5.9949   6.0386   6.2526   6.3092   6.3434   6.3932
     6.4420   6.5149   6.6064   6.6567   6.7703   6.8391   6.8868   6.9306
     7.0026   7.0372   7.1112   7.1577   7.2486   7.2646   7.3483   7.3828
     7.4784   7.5287   7.5725   7.6138   7.6637   7.6948   7.6990   7.7444
     7.8077   7.8520   7.9546   7.9655   7.9940   8.0187   8.0473   8.1411
     8.1996   8.2636   8.5333   8.5593   8.8455   8.8693   9.0405   9.0947
     9.9508   9.9536  10.0534  10.0787  10.4360  10.4527  10.5332  10.6625
    10.8334  10.8853  10.9307  10.9506  11.3736  11.3813  11.5951  11.6073
    13.8164  13.8814  14.6446  14.7539  15.0158  15.1269  15.1525  15.1538
    15.6918  15.7458  15.8642  15.9212  15.9536  16.1026  16.2217  16.2755
    16.3097  16.4357  16.4818  16.6087  16.6091  16.6774  16.9226  16.9691
    16.9704  17.0873  17.1363  17.1510  17.3542  17.4201  17.4590  17.5100
    17.5994  17.6223  17.8767  17.9362  17.9971  18.0797  18.1419  18.1835
    18.1874  18.4586  18.5752  18.6867  18.7197  18.7665  19.0830  19.2002
    19.2321  19.3026  19.4025  19.8340  20.0613  20.4430  20.6180  20.8608

          k = 0.0000 0.1170-0.5103 ( 46772 PWs)   bands (ev):

   -88.7479 -88.7479 -88.2720 -88.2719 -85.2970 -85.2969 -84.8964 -84.8964
   -52.7187 -52.7187 -52.2007 -52.2006 -51.5940 -51.5940 -51.5423 -51.5423
   -51.3904 -51.3904 -50.8751 -50.8751 -48.8498 -48.8498 -48.5073 -48.5073
   -48.4602 -48.4601 -48.4397 -48.4397 -48.1835 -48.1835 -47.9968 -47.9967
   -23.7088 -23.7075 -23.7073 -23.7053 -23.6755 -23.6744 -23.6732 -23.6729
    -8.8140  -8.8021  -8.7678  -8.7654  -8.4954  -8.4751  -8.4570  -8.4078
    -8.2173  -8.2085  -8.0707  -8.0550  -8.0461  -8.0397  -8.0333  -8.0331
    -7.8554  -7.8407  -7.8031  -7.7876  -5.9012  -5.8945  -5.8244  -5.8172
    -5.6780  -5.6675  -5.6508  -5.6449  -5.6436  -5.6335  -5.6245  -5.6121
    -5.5149  -5.5136  -5.4569  -5.4458  -5.4236  -5.4182  -5.4064  -5.3919
    -5.2190  -5.2179  -5.1507  -5.1475   2.8702   2.8704   2.9967   3.0096
     3.0305   3.0731   3.1828   3.2015   3.2078   3.2131   3.2639   3.2934
     3.3204   3.3393   3.3824   3.3898   3.9986   4.0610   4.1236   4.1249
     4.2432   4.2860   4.3895   4.4351   4.5255   4.5511   4.7394   4.7450
     4.8504   4.9803   5.3188   5.4688   5.5736   5.5975   5.6881   5.7262
     5.8813   5.8905   6.0137   6.0706   6.2438   6.2823   6.3678   6.4648
     6.4654   6.4964   6.5082   6.5520   6.7685   6.7709   6.8534   6.8760
     6.9963   7.0897   7.1565   7.1672   7.3256   7.3889   7.4347   7.4562
     7.4841   7.5075   7.5532   7.5645   7.6117   7.6415   7.6794   7.7557
     7.7686   7.7776   7.8470   7.9257   7.9458   8.0306   8.0848   8.1402
     8.1790   8.2632   8.4211   8.4296   9.0329   9.0380   9.2227   9.2600
     9.9332   9.9498  10.0602  10.0948  10.4232  10.4409  10.4808  10.5861
    10.8423  10.9002  10.9071  10.9348  11.3557  11.3819  11.3958  11.4053
    14.1834  14.2918  14.3818  14.4539  15.4716  15.4841  15.5540  15.5580
    15.7350  15.7783  15.7866  15.8276  16.1744  16.2080  16.3535  16.3709
    16.4321  16.4338  16.4789  16.4800  16.5095  16.5144  16.5879  16.6236
    17.0233  17.0418  17.1709  17.1842  17.3333  17.3435  17.4011  17.4046
    17.5634  17.5979  17.6597  17.6988  18.1002  18.1012  18.1625  18.1680
    18.4502  18.4567  18.5588  18.5627  18.6846  18.6894  18.9916  19.0908
    19.2391  19.3007  19.3779  19.4427  20.2520  20.5241  20.5832  20.8052

          k = 0.1667 0.0000 0.0000 ( 46802 PWs)   bands (ev):

   -88.7479 -88.7479 -88.2720 -88.2719 -85.2970 -85.2970 -84.8964 -84.8963
   -52.7187 -52.7187 -52.2007 -52.2006 -51.5940 -51.5940 -51.5423 -51.5423
   -51.3904 -51.3904 -50.8751 -50.8751 -48.8498 -48.8498 -48.5073 -48.5073
   -48.4602 -48.4601 -48.4397 -48.4397 -48.1836 -48.1835 -47.9967 -47.9967
   -23.7304 -23.7264 -23.6949 -23.6908 -23.6882 -23.6839 -23.6569 -23.6526
    -9.1152  -9.0430  -8.6173  -8.5930  -8.4992  -8.4579  -8.2884  -8.2266
    -8.2183  -8.1909  -8.0933  -8.0517  -8.0201  -7.9608  -7.8589  -7.8021
    -7.7841  -7.7528  -7.7154  -7.6553  -6.0488  -6.0014  -5.9781  -5.8885
    -5.8016  -5.7541  -5.7362  -5.7278  -5.7275  -5.7233  -5.6762  -5.6540
    -5.6474  -5.6021  -5.5574  -5.5146  -5.4946  -5.4650  -5.3395  -5.2886
    -5.2835  -5.2417  -5.2087  -5.0860   2.5250   2.5516   2.8103   2.8124
     2.9645   2.9790   3.0998   3.1621   3.2285   3.2378   3.2902   3.3076
     3.3418   3.3641   3.5507   3.5599   3.6111   3.8921   4.3347   4.3609
     4.4543   4.4592   4.5115   4.5370   4.7213   4.8561   4.8903   5.0750
     5.0876   5.2181   5.4654   5.5762   5.6433   5.6787   5.7433   5.7839
     5.7998   5.9348   5.9915   6.0550   6.1247   6.3019   6.3658   6.4158
     6.5051   6.5126   6.6357   6.7320   6.8248   6.8548   6.8760   7.0116
     7.0168   7.0686   7.1617   7.1947   7.1980   7.2748   7.2796   7.3251
     7.4854   7.4914   7.5496   7.5555   7.5762   7.6422   7.7041   7.7632
     7.8196   7.8411   7.8842   7.9529   7.9937   8.2468   8.2789   8.3450
     8.3856   8.4223   8.4339   8.4940   8.7212   8.7632   8.9716   9.0078
     9.8393   9.9155  10.0478  10.0542  10.4785  10.4914  10.5028  10.7612
    10.7914  10.8957  10.9558  10.9984  11.2972  11.3320  12.0511  12.0614
    13.1839  13.6866  14.5024  14.5957  14.6521  14.9347  15.0925  15.4087
    15.5045  15.5307  15.5822  15.7033  15.7682  15.8034  15.8225  16.1747
    16.2720  16.3481  16.4473  16.6199  16.7124  16.7538  16.8522  16.9343
    16.9940  17.0540  17.0988  17.1558  17.4802  17.5184  17.5761  17.6278
    17.6419  17.8076  17.9180  17.9316  18.0840  18.1010  18.2665  18.4173
    18.4436  18.6213  18.7243  18.7991  18.9063  19.0500  19.2302  19.2582
    19.3953  19.4608  19.4831  19.6615  20.2473  20.3199  20.3736  20.4283

          k = 0.1667 0.0000 0.1701 ( 46824 PWs)   bands (ev):

   -88.7479 -88.7479 -88.2720 -88.2719 -85.2970 -85.2970 -84.8964 -84.8963
   -52.7187 -52.7187 -52.2007 -52.2006 -51.5940 -51.5940 -51.5423 -51.5423
   -51.3904 -51.3904 -50.8751 -50.8751 -48.8498 -48.8498 -48.5073 -48.5073
   -48.4602 -48.4601 -48.4397 -48.4397 -48.1836 -48.1835 -47.9967 -47.9967
   -23.7274 -23.7234 -23.6941 -23.6900 -23.6889 -23.6849 -23.6599 -23.6557
    -9.0747  -9.0080  -8.6326  -8.5865  -8.5045  -8.4479  -8.4027  -8.2836
    -8.2736  -8.1698  -8.0930  -8.0907  -8.0031  -7.9885  -7.8770  -7.8297
    -7.8072  -7.7723  -7.7286  -7.6638  -6.0480  -5.9361  -5.9018  -5.8853
    -5.7976  -5.7586  -5.7349  -5.7106  -5.6956  -5.6735  -5.6621  -5.6319
    -5.5854  -5.5584  -5.5419  -5.5411  -5.4224  -5.4169  -5.3403  -5.3118
    -5.2840  -5.2518  -5.1964  -5.1028   2.5141   2.5363   2.9289   2.9396
     2.9987   3.0226   3.0968   3.1815   3.2095   3.2228   3.2974   3.3080
     3.3140   3.3725   3.4925   3.5206   3.6564   3.9142   4.2247   4.2419
     4.4307   4.4407   4.5905   4.5995   4.6537   4.6849   4.7429   5.1439
     5.1640   5.2422   5.4199   5.5432   5.6182   5.6516   5.7322   5.8054
     5.8518   5.9506   6.0096   6.0271   6.1476   6.2236   6.2870   6.3857
     6.4561   6.5366   6.6594   6.7221   6.7473   6.7765   6.8609   6.9011
     6.9779   7.0036   7.0042   7.1662   7.2041   7.2630   7.3595   7.3703
     7.4255   7.5613   7.5918   7.6202   7.6508   7.7001   7.7403   7.7961
     7.8492   7.8812   7.9208   7.9447   7.9951   8.1842   8.2277   8.2638
     8.3036   8.3424   8.4888   8.5600   8.6746   8.7447   8.9560   9.0188
     9.8664   9.8991  10.0416  10.0670  10.4463  10.4846  10.4897  10.7576
    10.8019  10.9063  10.9233  10.9985  11.3096  11.3379  11.8661  11.8972
    13.4173  13.7701  14.6535  14.7254  14.8572  14.9346  15.0507  15.3262
    15.5904  15.6157  15.6453  15.6934  15.8847  15.8940  16.0210  16.1219
    16.4293  16.4912  16.5143  16.6737  16.7410  16.7892  16.8201  16.9586
    16.9666  17.0886  17.1220  17.1817  17.4762  17.5075  17.5417  17.6242
    17.7087  17.7158  17.8195  17.9870  18.0105  18.1347  18.1949  18.2848
    18.3939  18.5752  18.7423  18.8309  18.9539  19.0384  19.1527  19.1739
    19.2245  19.4144  19.5843  19.8357  20.0732  20.3943  20.4918  20.7873

          k = 0.1667 0.0000 0.3402 ( 46794 PWs)   bands (ev):

   -88.7479 -88.7479 -88.2720 -88.2719 -85.2970 -85.2970 -84.8964 -84.8964
   -52.7187 -52.7187 -52.2007 -52.2006 -51.5940 -51.5940 -51.5423 -51.5423
   -51.3904 -51.3904 -50.8751 -50.8751 -48.8498 -48.8498 -48.5073 -48.5073
   -48.4602 -48.4601 -48.4397 -48.4397 -48.1836 -48.1835 -47.9967 -47.9967
   -23.7192 -23.7155 -23.6991 -23.6953 -23.6842 -23.6804 -23.6672 -23.6634
    -8.9728  -8.9108  -8.7020  -8.5886  -8.5703  -8.5294  -8.4758  -8.3031
    -8.2802  -8.2190  -8.1501  -8.0861  -8.0645  -7.9979  -7.9186  -7.9147
    -7.8635  -7.8198  -7.7735  -7.6760  -5.9893  -5.8840  -5.8250  -5.7529
    -5.7522  -5.7434  -5.6954  -5.6897  -5.6507  -5.6460  -5.5965  -5.5847
    -5.5646  -5.5272  -5.4642  -5.4595  -5.3902  -5.3679  -5.3491  -5.3242
    -5.2800  -5.2550  -5.1566  -5.1265   2.5791   2.5957   3.0016   3.0165
     3.0473   3.0888   3.1531   3.1615   3.1648   3.2477   3.2718   3.2959
     3.3388   3.3645   3.4168   3.4362   3.7980   4.0489   4.1471   4.1966
     4.3396   4.3998   4.4309   4.4602   4.5785   4.6053   4.7644   5.0747
     5.0797   5.1867   5.2853   5.4802   5.6118   5.6606   5.7032   5.7840
     5.9122   5.9749   5.9975   6.0363   6.1550   6.2024   6.2864   6.3785
     6.4165   6.5072   6.6132   6.6857   6.7391   6.7779   6.8410   6.8576
     6.9490   6.9998   7.0140   7.0897   7.1614   7.2541   7.3109   7.4227
     7.4339   7.4662   7.5298   7.6203   7.6242   7.7273   7.7604   7.7606
     7.8184   7.8978   7.9080   7.9373   7.9719   7.9833   8.0231   8.2153
     8.2666   8.3664   8.5404   8.5789   8.7222   8.7600   9.0194   9.0923
     9.8965   9.9228  10.0584  10.1346  10.4142  10.4625  10.4693  10.6516
    10.8100  10.9014  10.9349  10.9776  11.3663  11.3872  11.4765  11.5740
    13.9238  14.0067  14.7262  14.8588  15.0103  15.1760  15.3842  15.4141
    15.6976  15.7569  15.8667  15.8719  15.9710  16.1231  16.3119  16.3165
    16.4526  16.5003  16.5773  16.6074  16.7108  16.7586  16.8745  16.9729
    17.0756  17.1016  17.1833  17.3134  17.3615  17.4349  17.5855  17.6196
    17.6700  17.7370  17.7513  17.8649  18.0407  18.1037  18.1039  18.1404
    18.2840  18.4302  18.5705  18.6996  18.7256  18.9384  18.9989  19.1627
    19.2176  19.4276  19.5704  19.5852  19.9302  20.4522  20.5331  20.8074

          k = 0.1667 0.0000-0.5103 ( 46800 PWs)   bands (ev):

   -88.7479 -88.7479 -88.2720 -88.2720 -85.2970 -85.2970 -84.8964 -84.8964
   -52.7187 -52.7187 -52.2007 -52.2006 -51.5940 -51.5940 -51.5423 -51.5423
   -51.3904 -51.3904 -50.8751 -50.8751 -48.8498 -48.8498 -48.5073 -48.5073
   -48.4602 -48.4601 -48.4397 -48.4397 -48.1835 -48.1835 -47.9968 -47.9967
   -23.7091 -23.7084 -23.7060 -23.7042 -23.6768 -23.6753 -23.6730 -23.6717
    -8.8720  -8.8101  -8.7867  -8.7315  -8.5612  -8.5455  -8.4658  -8.3834
    -8.2182  -8.1889  -8.1744  -8.1038  -8.1018  -8.0068  -7.9831  -7.9176
    -7.9127  -7.8651  -7.7764  -7.6970  -5.9058  -5.9012  -5.7464  -5.7350
    -5.7216  -5.7191  -5.6788  -5.6725  -5.6703  -5.6520  -5.5588  -5.5386
    -5.5299  -5.4925  -5.4503  -5.4305  -5.4143  -5.3819  -5.3281  -5.3168
    -5.2707  -5.2428  -5.1311  -5.1285   2.6560   2.6684   3.0149   3.0311
     3.0526   3.0925   3.1220   3.1291   3.1670   3.2205   3.2650   3.3014
     3.3131   3.3668   3.3831   3.3875   3.8946   4.1402   4.1562   4.1770
     4.2937   4.3929   4.4365   4.4950   4.5061   4.5869   4.8220   4.9430
     4.9738   5.1188   5.2010   5.4612   5.5968   5.6352   5.6478   5.7802
     5.8463   5.9625   5.9846   6.0680   6.1864   6.2935   6.3409   6.3917
     6.4543   6.4612   6.5612   6.6162   6.7014   6.7588   6.8735   6.8923
     6.9058   7.0605   7.1223   7.1254   7.2431   7.2482   7.3007   7.3970
     7.4052   7.4460   7.4938   7.5415   7.6305   7.6481   7.6945   7.7422
     7.7427   7.7795   7.8463   7.8913   7.9530   8.0107   8.0779   8.1985
     8.2179   8.3643   8.4209   8.4441   8.8098   8.8887   9.0755   9.1587
     9.9348   9.9681  10.0817  10.1626  10.4125  10.4628  10.4751  10.5783
    10.8109  10.9249  10.9398  10.9916  11.2336  11.3926  11.3934  11.4231
    14.2440  14.4156  14.4509  14.5666  15.4222  15.4417  15.5925  15.6148
    15.7809  15.7938  15.8379  15.8868  16.1255  16.1472  16.4638  16.4688
    16.4976  16.5414  16.6038  16.6165  16.7270  16.7848  16.8370  16.8680
    16.9634  17.0244  17.1579  17.1748  17.4975  17.5103  17.5171  17.5376
    17.7331  17.7583  17.8250  17.8393  17.8600  17.8749  18.0491  18.0588
    18.3911  18.4089  18.5500  18.5713  18.7707  18.8151  18.8910  18.9753
    19.1372  19.2504  19.8164  19.9461  20.0103  20.0278  20.2393  20.4846

          k = 0.1667 0.1170 0.0000 ( 46844 PWs)   bands (ev):

   -88.7479 -88.7479 -88.2720 -88.2719 -85.2970 -85.2970 -84.8964 -84.8963
   -52.7187 -52.7187 -52.2007 -52.2006 -51.5940 -51.5940 -51.5423 -51.5423
   -51.3904 -51.3904 -50.8751 -50.8751 -48.8498 -48.8498 -48.5073 -48.5073
   -48.4602 -48.4601 -48.4397 -48.4397 -48.1836 -48.1835 -47.9967 -47.9967
   -23.7295 -23.7275 -23.6938 -23.6918 -23.6872 -23.6851 -23.6557 -23.6536
    -9.0990  -9.0631  -8.6073  -8.5955  -8.4928  -8.4727  -8.2731  -8.2441
    -8.2061  -8.1759  -8.1051  -8.0824  -7.9912  -7.9681  -7.8445  -7.8146
    -7.7820  -7.7724  -7.6903  -7.6646  -6.0094  -5.9986  -5.9706  -5.8826
    -5.8549  -5.8451  -5.7362  -5.7340  -5.7255  -5.7214  -5.6400  -5.6249
    -5.6084  -5.6003  -5.5590  -5.5168  -5.5004  -5.4242  -5.3867  -5.3075
    -5.2856  -5.2406  -5.1672  -5.1061   2.5314   2.5447   2.8108   2.8119
     2.9687   2.9760   3.1126   3.1431   3.2355   3.2407   3.2955   3.3049
     3.3423   3.3535   3.5565   3.5594   3.6621   3.7977   4.3471   4.3589
     4.4556   4.4579   4.5230   4.5338   4.8049   4.8548   4.9201   5.0652
     5.0872   5.1203   5.4918   5.5586   5.6302   5.6677   5.7414   5.7591
     5.8554   5.9181   6.0385   6.0586   6.1449   6.3012   6.3393   6.3923
     6.4723   6.5044   6.6270   6.7400   6.8130   6.8374   6.9232   6.9830
     7.0652   7.0939   7.1739   7.1832   7.1934   7.2558   7.2836   7.3120
     7.4672   7.4853   7.5511   7.5723   7.6043   7.6291   7.7378   7.7809
     7.8301   7.8610   7.8656   7.9319   8.0390   8.2148   8.2654   8.2786
     8.3913   8.4051   8.4531   8.4797   8.7368   8.7573   8.9817   8.9998
     9.8707   9.9063  10.0487  10.0520  10.4839  10.4963  10.5633  10.7038
    10.8050  10.8507  10.9764  10.9933  11.3070  11.3244  12.0535  12.0586
    13.2798  13.5191  14.5944  14.6307  14.6675  14.8633  15.1789  15.3753
    15.4422  15.5084  15.6307  15.6534  15.7087  15.8378  15.8508  15.9743
    16.4478  16.4996  16.5693  16.6126  16.6634  16.8197  16.8265  16.8546
    16.9612  16.9841  17.1917  17.1972  17.3770  17.4284  17.5385  17.5738
    17.7743  17.7831  17.8924  18.0227  18.0685  18.1829  18.2675  18.3233
    18.3736  18.5962  18.6154  18.6917  19.0178  19.1001  19.1735  19.2076
    19.4574  19.4836  19.6083  19.8326  20.0421  20.3573  20.5143  20.9349

          k = 0.1667 0.1170 0.1701 ( 46821 PWs)   bands (ev):

   -88.7479 -88.7479 -88.2720 -88.2719 -85.2970 -85.2970 -84.8964 -84.8964
   -52.7187 -52.7187 -52.2007 -52.2006 -51.5940 -51.5940 -51.5423 -51.5423
   -51.3904 -51.3904 -50.8751 -50.8751 -48.8498 -48.8498 -48.5073 -48.5073
   -48.4602 -48.4601 -48.4397 -48.4397 -48.1836 -48.1835 -47.9967 -47.9967
   -23.7264 -23.7245 -23.6931 -23.6911 -23.6879 -23.6859 -23.6587 -23.6567
    -9.0596  -9.0264  -8.6194  -8.5961  -8.4981  -8.4756  -8.3694  -8.3220
    -8.2257  -8.1638  -8.1245  -8.1022  -7.9931  -7.9836  -7.8616  -7.8362
    -7.8081  -7.7956  -7.7029  -7.6744  -6.0067  -5.9442  -5.8962  -5.8779
    -5.8467  -5.8369  -5.7267  -5.7088  -5.6908  -5.6786  -5.6130  -5.6029
    -5.5715  -5.5575  -5.5449  -5.5113  -5.4668  -5.4251  -5.3533  -5.3096
    -5.2841  -5.2299  -5.1825  -5.1230   2.5195   2.5306   2.9313   2.9367
     3.0026   3.0140   3.1202   3.1627   3.2138   3.2186   3.3027   3.3073
     3.3239   3.3551   3.5043   3.5171   3.7009   3.8243   4.2326   4.2435
     4.4358   4.4412   4.5895   4.5932   4.6566   4.6758   4.8814   5.1081
     5.1613   5.1690   5.4430   5.5000   5.6433   5.6608   5.7109   5.7559
     5.8929   5.9645   6.0510   6.0682   6.1119   6.1820   6.3244   6.3742
     6.4638   6.5022   6.6068   6.6461   6.8032   6.8312   6.8722   6.8999
     6.9881   7.0144   7.0604   7.1123   7.2009   7.2508   7.3473   7.3776
     7.4580   7.5441   7.6033   7.6209   7.6551   7.6756   7.7638   7.7830
     7.8684   7.9008   7.9422   7.9537   8.0026   8.1556   8.2242   8.2341
     8.2878   8.3120   8.5067   8.5395   8.6954   8.7303   8.9735   9.0053
     9.8902   9.9032  10.0464  10.0600  10.4568  10.4784  10.5478  10.6847
    10.8201  10.8628  10.9631  10.9903  11.3171  11.3311  11.8725  11.8879
    13.4901  13.6619  14.7143  14.7405  14.8522  14.8959  15.1073  15.2409
    15.5849  15.6428  15.6813  15.7244  15.8279  15.8919  15.9994  16.0685
    16.4938  16.5131  16.6120  16.6910  16.7397  16.8014  16.8207  16.9196
    17.0096  17.0185  17.1111  17.1761  17.4127  17.4590  17.5121  17.5636
    17.8080  17.8344  17.9244  17.9549  18.0273  18.1226  18.1346  18.1966
    18.3612  18.5732  18.6256  18.7426  18.9508  19.0622  19.1637  19.2105
    19.2593  19.3336  19.8085  19.9596  20.2710  20.3551  20.4768  20.5741

          k = 0.1667 0.1170 0.3402 ( 46803 PWs)   bands (ev):

   -88.7479 -88.7479 -88.2720 -88.2719 -85.2970 -85.2970 -84.8964 -84.8964
   -52.7187 -52.7187 -52.2007 -52.2006 -51.5940 -51.5940 -51.5423 -51.5423
   -51.3904 -51.3904 -50.8751 -50.8751 -48.8498 -48.8498 -48.5073 -48.5073
   -48.4602 -48.4601 -48.4397 -48.4397 -48.1836 -48.1835 -47.9967 -47.9967
   -23.7184 -23.7165 -23.6982 -23.6963 -23.6832 -23.6813 -23.6662 -23.6643
    -8.9589  -8.9282  -8.6815  -8.6291  -8.5634  -8.5375  -8.4224  -8.3432
    -8.2727  -8.2335  -8.1317  -8.0979  -8.0396  -7.9999  -7.9102  -7.9039
    -7.8770  -7.8654  -7.7306  -7.6902  -5.9539  -5.8708  -5.8683  -5.8205
    -5.7526  -5.7470  -5.6820  -5.6647  -5.6515  -5.6292  -5.5940  -5.5671
    -5.5269  -5.5218  -5.4791  -5.4528  -5.4447  -5.4066  -5.3381  -5.3266
    -5.2350  -5.2135  -5.1795  -5.1486   2.5833   2.5916   3.0054   3.0131
     3.0534   3.0730   3.1602   3.1637   3.1858   3.2206   3.2933   3.3024
     3.3329   3.3442   3.4231   3.4329   3.8418   3.9585   4.1578   4.1823
     4.3688   4.4105   4.4175   4.4415   4.5987   4.6164   4.8642   5.0434
     5.0828   5.1099   5.3456   5.4669   5.6132   5.6299   5.6768   5.7176
     5.9818   5.9897   6.0105   6.0343   6.1725   6.1941   6.3116   6.3755
     6.4104   6.4682   6.6302   6.6383   6.7280   6.7642   6.8655   6.9087
     6.9438   6.9936   7.0303   7.0546   7.1831   7.2288   7.3289   7.3949
     7.4681   7.5097   7.5578   7.5706   7.6429   7.6838   7.7449   7.7659
     7.8458   7.8643   7.9253   7.9511   8.0064   8.0163   8.0244   8.1800
     8.2490   8.3039   8.5586   8.5823   8.7267   8.7443   9.0405   9.0762
     9.9106   9.9270  10.0826  10.1216  10.4279  10.4550  10.5075  10.6040
    10.8293  10.8744  10.9470  10.9682  11.3730  11.3834  11.4966  11.5456
    13.9459  13.9879  14.7511  14.8159  15.0621  15.1466  15.3652  15.3731
    15.7335  15.7464  15.8757  15.8958  16.0530  16.1159  16.2573  16.2810
    16.4694  16.5234  16.5674  16.6309  16.6728  16.7460  16.9097  17.0496
    17.0819  17.0990  17.1540  17.2055  17.3612  17.4598  17.5305  17.5715
    17.6534  17.6582  17.9101  17.9665  18.0471  18.0819  18.1238  18.2238
    18.2873  18.3790  18.4785  18.5741  18.7398  18.8763  19.1002  19.1505
    19.2410  19.2976  19.5083  19.8026  20.1436  20.3356  20.5321  20.8926

          k = 0.1667 0.1170-0.5103 ( 46768 PWs)   bands (ev):

   -88.7479 -88.7479 -88.2720 -88.2720 -85.2970 -85.2970 -84.8964 -84.8964
   -52.7187 -52.7187 -52.2007 -52.2006 -51.5940 -51.5940 -51.5423 -51.5423
   -51.3904 -51.3904 -50.8751 -50.8750 -48.8498 -48.8498 -48.5073 -48.5073
   -48.4602 -48.4601 -48.4397 -48.4397 -48.1835 -48.1835 -47.9968 -47.9967
   -23.7083 -23.7075 -23.7068 -23.7054 -23.6757 -23.6744 -23.6739 -23.6726
    -8.8551  -8.8149  -8.7932  -8.7570  -8.5322  -8.5045  -8.4849  -8.4261
    -8.2326  -8.2054  -8.1422  -8.1092  -8.0639  -8.0085  -7.9749  -7.9353
    -7.9129  -7.8926  -7.7464  -7.7103  -5.8814  -5.8765  -5.8157  -5.8095
    -5.6998  -5.6929  -5.6858  -5.6792  -5.6222  -5.6025  -5.5609  -5.5494
    -5.5114  -5.5005  -5.4781  -5.4639  -5.3967  -5.3647  -5.3619  -5.3379
    -5.2160  -5.2047  -5.1549  -5.1509   2.6593   2.6654   3.0177   3.0268
     3.0612   3.0821   3.1252   3.1410   3.1691   3.2025   3.2778   3.3000
     3.3182   3.3494   3.3860   3.3877   3.9350   4.0453   4.1657   4.1733
     4.3159   4.3683   4.4512   4.4746   4.5632   4.5972   4.8746   4.9426
     4.9645   5.0303   5.3012   5.4828   5.5630   5.6072   5.6392   5.6725
     5.8956   5.9434   6.0132   6.0537   6.2471   6.2937   6.3597   6.4144
[...]
    15.5901  15.6154  15.6459  15.6945  15.8837  15.8945  16.0205  16.1223
    16.4298  16.4911  16.5129  16.6734  16.7411  16.7885  16.8204  16.9582
    16.9673  17.0884  17.1227  17.1816  17.4762  17.5063  17.5406  17.6258
    17.7089  17.7153  17.8199  17.9869  18.0128  18.1339  18.1952  18.2846
    18.3950  18.5737  18.7424  18.8374  18.9560  19.0346  19.1566  19.1727
    19.2265  19.4123  19.5749  19.8488  20.0725  20.4346  20.4808  20.5791

          k =-0.1667 0.0000 0.3402 ( 46794 PWs)   bands (ev):

   -88.7466 -88.7466 -88.2709 -88.2708 -85.2984 -85.2984 -84.8973 -84.8973
   -52.7165 -52.7165 -52.1996 -52.1996 -51.5934 -51.5934 -51.5417 -51.5417
   -51.3889 -51.3889 -50.8744 -50.8744 -48.8516 -48.8516 -48.5083 -48.5083
   -48.4610 -48.4610 -48.4410 -48.4410 -48.1846 -48.1846 -47.9974 -47.9974
   -23.7192 -23.7154 -23.6991 -23.6953 -23.6842 -23.6804 -23.6672 -23.6634
    -8.9725  -8.9103  -8.7022  -8.5882  -8.5705  -8.5297  -8.4755  -8.3028
    -8.2792  -8.2188  -8.1502  -8.0856  -8.0648  -7.9984  -7.9186  -7.9149
    -7.8635  -7.8201  -7.7733  -7.6763  -5.9892  -5.8841  -5.8249  -5.7530
    -5.7521  -5.7434  -5.6954  -5.6896  -5.6508  -5.6462  -5.5965  -5.5846
    -5.5645  -5.5271  -5.4641  -5.4595  -5.3899  -5.3678  -5.3490  -5.3240
    -5.2800  -5.2552  -5.1567  -5.1264   2.5815   2.5983   3.0048   3.0195
     3.0481   3.0888   3.1545   3.1631   3.1657   3.2491   3.2725   3.2966
     3.3392   3.3650   3.4175   3.4370   3.7978   4.0481   4.1475   4.1968
     4.3406   4.3991   4.4310   4.4578   4.5789   4.6054   4.7649   5.0741
     5.0794   5.1874   5.2842   5.4794   5.6102   5.6603   5.7033   5.7840
     5.9112   5.9713   5.9962   6.0348   6.1534   6.2012   6.2858   6.3782
     6.4162   6.5053   6.6130   6.6856   6.7384   6.7774   6.8411   6.8577
     6.9487   6.9991   7.0134   7.0895   7.1604   7.2534   7.3108   7.4224
     7.4337   7.4664   7.5292   7.6195   7.6248   7.7278   7.7589   7.7606
     7.8183   7.8985   7.9082   7.9371   7.9721   7.9832   8.0233   8.2175
     8.2688   8.3667   8.5404   8.5794   8.7181   8.7555   9.0205   9.0928
     9.8964   9.9249  10.0584  10.1358  10.4130  10.4609  10.4679  10.6520
    10.8091  10.9002  10.9330  10.9758  11.3654  11.3864  11.4809  11.5780
    13.9238  14.0070  14.7258  14.8581  15.0103  15.1756  15.3841  15.4143
    15.6974  15.7561  15.8674  15.8723  15.9714  16.1227  16.3109  16.3163
    16.4537  16.4991  16.5764  16.6077  16.7114  16.7586  16.8732  16.9722
    17.0738  17.1017  17.1814  17.3141  17.3609  17.4353  17.5856  17.6194
    17.6709  17.7366  17.7509  17.8642  18.0420  18.1020  18.1042  18.1412
    18.2834  18.4325  18.5708  18.6988  18.7215  18.9380  18.9924  19.1648
    19.2205  19.4241  19.5775  19.5906  19.9319  20.4562  20.5707  20.8436

          k =-0.1667-0.1170 0.1701 ( 46821 PWs)   bands (ev):

   -88.7466 -88.7466 -88.2709 -88.2708 -85.2984 -85.2984 -84.8973 -84.8973
   -52.7165 -52.7165 -52.1996 -52.1996 -51.5934 -51.5934 -51.5417 -51.5417
   -51.3889 -51.3889 -50.8744 -50.8744 -48.8516 -48.8516 -48.5083 -48.5083
   -48.4610 -48.4610 -48.4410 -48.4410 -48.1846 -48.1846 -47.9974 -47.9974
   -23.7264 -23.7245 -23.6931 -23.6910 -23.6879 -23.6859 -23.6587 -23.6567
    -9.0592  -9.0260  -8.6196  -8.5962  -8.4981  -8.4758  -8.3688  -8.3212
    -8.2258  -8.1636  -8.1244  -8.1018  -7.9936  -7.9839  -7.8616  -7.8363
    -7.8079  -7.7953  -7.7032  -7.6747  -6.0066  -5.9441  -5.8961  -5.8781
    -5.8469  -5.8368  -5.7266  -5.7087  -5.6910  -5.6787  -5.6129  -5.6029
    -5.5715  -5.5573  -5.5447  -5.5112  -5.4666  -5.4251  -5.3532  -5.3094
    -5.2843  -5.2300  -5.1824  -5.1228   2.5216   2.5328   2.9330   2.9387
     3.0047   3.0159   3.1202   3.1629   3.2156   3.2204   3.3032   3.3080
     3.3242   3.3555   3.5049   3.5178   3.7006   3.8236   4.2331   4.2439
     4.4374   4.4427   4.5893   4.5931   4.6550   4.6745   4.8822   5.1086
     5.1614   5.1694   5.4418   5.4989   5.6421   5.6599   5.7109   5.7560
     5.8917   5.9627   6.0502   6.0665   6.1089   6.1817   6.3242   6.3736
     6.4628   6.5011   6.6066   6.6456   6.8023   6.8307   6.8721   6.8993
     6.9870   7.0137   7.0604   7.1120   7.2000   7.2503   7.3466   7.3767
     7.4576   7.5441   7.6028   7.6207   7.6543   7.6754   7.7639   7.7831
     7.8681   7.9008   7.9420   7.9539   8.0028   8.1558   8.2243   8.2346
     8.2876   8.3120   8.5058   8.5384   8.6963   8.7312   8.9739   9.0056
     9.8928   9.9045  10.0457  10.0602  10.4553  10.4770  10.5457  10.6832
    10.8191  10.8616  10.9616  10.9887  11.3162  11.3302  11.8770  11.8924
    13.4896  13.6619  14.7139  14.7404  14.8521  14.8959  15.1070  15.2409
    15.5859  15.6427  15.6820  15.7256  15.8273  15.8923  15.9988  16.0684
    16.4924  16.5141  16.6115  16.6920  16.7382  16.8017  16.8202  16.9195
    17.0097  17.0202  17.1111  17.1762  17.4134  17.4613  17.5145  17.5622
    17.8062  17.8364  17.9244  17.9565  18.0268  18.1235  18.1383  18.1984
    18.3611  18.5714  18.6237  18.7431  18.9530  19.0642  19.1683  19.2034
    19.2589  19.3449  19.8170  19.9550  20.3225  20.3518  20.4907  20.5992

          k =-0.1667-0.1170 0.3402 ( 46803 PWs)   bands (ev):

   -88.7466 -88.7466 -88.2709 -88.2708 -85.2984 -85.2984 -84.8973 -84.8973
   -52.7165 -52.7165 -52.1996 -52.1996 -51.5934 -51.5934 -51.5417 -51.5417
   -51.3889 -51.3889 -50.8744 -50.8744 -48.8516 -48.8516 -48.5083 -48.5083
   -48.4610 -48.4610 -48.4410 -48.4410 -48.1846 -48.1846 -47.9974 -47.9974
   -23.7183 -23.7165 -23.6982 -23.6963 -23.6832 -23.6813 -23.6662 -23.6643
    -8.9586  -8.9278  -8.6816  -8.6292  -8.5633  -8.5375  -8.4221  -8.3426
    -8.2724  -8.2334  -8.1314  -8.0974  -8.0399  -8.0004  -7.9104  -7.9039
    -7.8770  -7.8655  -7.7307  -7.6904  -5.9538  -5.8707  -5.8683  -5.8205
    -5.7525  -5.7470  -5.6820  -5.6648  -5.6516  -5.6293  -5.5939  -5.5670
    -5.5268  -5.5218  -5.4792  -5.4527  -5.4445  -5.4065  -5.3380  -5.3264
    -5.2352  -5.2136  -5.1794  -5.1484   2.5858   2.5942   3.0086   3.0164
     3.0539   3.0731   3.1616   3.1652   3.1868   3.2217   3.2942   3.3032
     3.3333   3.3446   3.4238   3.4336   3.8415   3.9579   4.1583   4.1826
     4.3697   4.4114   4.4158   4.4395   4.5989   4.6162   4.8646   5.0431
     5.0825   5.1103   5.3445   5.4660   5.6122   5.6295   5.6767   5.7174
     5.9798   5.9873   6.0088   6.0325   6.1715   6.1930   6.3113   6.3755
     6.4096   6.4668   6.6300   6.6381   6.7272   6.7637   6.8652   6.9087
     6.9436   6.9929   7.0299   7.0544   7.1822   7.2281   7.3290   7.3949
     7.4675   7.5097   7.5575   7.5704   7.6422   7.6835   7.7449   7.7657
     7.8461   7.8646   7.9251   7.9511   8.0066   8.0166   8.0246   8.1815
     8.2508   8.3051   8.5588   8.5827   8.7224   8.7397   9.0415   9.0768
     9.9108   9.9282  10.0833  10.1228  10.4266  10.4536  10.5061  10.6038
    10.8283  10.8733  10.9452  10.9664  11.3722  11.3826  11.5010  11.5498
    13.9459  13.9879  14.7504  14.8162  15.0620  15.1462  15.3652  15.3732
    15.7338  15.7475  15.8756  15.8957  16.0536  16.1164  16.2569  16.2814
    16.4701  16.5220  16.5663  16.6314  16.6730  16.7448  16.9098  17.0489
    17.0799  17.0997  17.1558  17.2047  17.3613  17.4605  17.5315  17.5726
    17.6528  17.6588  17.9107  17.9667  18.0490  18.0810  18.1226  18.2225
    18.2871  18.3770  18.4808  18.5750  18.7377  18.8769  19.0978  19.1437
    19.2400  19.2981  19.5094  19.8122  20.1183  20.3366  20.5600  20.8049

          k =-0.3333 0.0000 0.1701 ( 46855 PWs)   bands (ev):

   -88.7466 -88.7466 -88.2709 -88.2708 -85.2984 -85.2984 -84.8973 -84.8973
   -52.7165 -52.7165 -52.1996 -52.1996 -51.5934 -51.5934 -51.5417 -51.5417
   -51.3890 -51.3889 -50.8744 -50.8744 -48.8516 -48.8516 -48.5083 -48.5083
   -48.4610 -48.4610 -48.4410 -48.4410 -48.1846 -48.1846 -47.9974 -47.9974
   -23.7197 -23.7160 -23.7002 -23.6964 -23.6829 -23.6790 -23.6666 -23.6628
    -8.9846  -8.9288  -8.7252  -8.6442  -8.6197  -8.6059  -8.4088  -8.2646
    -8.2245  -8.1848  -8.1440  -8.0769  -8.0293  -8.0138  -7.8875  -7.8461
    -7.8388  -7.7911  -7.7579  -7.6597  -5.9745  -5.8846  -5.8644  -5.7706
    -5.7594  -5.7510  -5.7297  -5.7167  -5.7112  -5.7098  -5.6642  -5.5966
    -5.5338  -5.5170  -5.4671  -5.4535  -5.4305  -5.4169  -5.2984  -5.2926
    -5.2338  -5.2311  -5.1826  -5.1231   2.5743   2.5931   2.9536   2.9701
     3.0418   3.1044   3.1427   3.1585   3.2100   3.2539   3.2913   3.3028
     3.3441   3.3779   3.5122   3.5181   3.7776   4.0334   4.1611   4.2171
     4.3493   4.3664   4.4274   4.4393   4.5927   4.6378   4.7769   5.0961
     5.1265   5.2277   5.3184   5.5283   5.5495   5.6736   5.6783   5.6971
     5.7089   5.8616   5.9406   5.9533   6.0520   6.2094   6.2691   6.3673
     6.4200   6.5843   6.6285   6.6877   6.7292   6.8232   6.8808   6.8814
     6.9776   6.9793   7.0273   7.0953   7.1872   7.1987   7.3554   7.3784
     7.4431   7.5173   7.5226   7.6041   7.6435   7.7087   7.7372   7.8130
     7.8263   7.8307   7.8804   7.9073   7.9716   8.0034   8.0207   8.2424
     8.3281   8.3977   8.6464   8.7036   8.8112   8.8141   8.9755   9.0719
     9.8337   9.8713  10.0502  10.1107  10.4306  10.4938  10.5010  10.6956
    10.8118  10.8987  10.9907  11.0326  11.2749  11.3242  11.5273  11.5971
    13.9005  13.9940  15.0239  15.0242  15.0984  15.2545  15.4058  15.4206
    15.4795  15.7799  15.8104  15.9556  15.9839  16.0021  16.2563  16.3125
    16.4107  16.5771  16.5958  16.6491  16.6546  16.7667  16.8644  16.8773
    17.0136  17.0939  17.1794  17.1955  17.2913  17.3863  17.4682  17.6018
    17.6937  17.7429  17.7691  17.8392  17.9723  18.0770  18.1046  18.1051
    18.2769  18.3409  18.5308  18.6148  18.8659  19.0751  19.0763  19.2623
    19.4013  19.5407  19.5765  19.9201  20.0830  20.3551  20.4118  20.6161

          k =-0.3333 0.0000 0.3402 ( 46836 PWs)   bands (ev):

   -88.7466 -88.7466 -88.2709 -88.2709 -85.2984 -85.2984 -84.8973 -84.8973
   -52.7165 -52.7165 -52.1996 -52.1996 -51.5934 -51.5934 -51.5417 -51.5417
   -51.3889 -51.3889 -50.8744 -50.8744 -48.8516 -48.8516 -48.5083 -48.5083
   -48.4610 -48.4610 -48.4410 -48.4410 -48.1846 -48.1846 -47.9974 -47.9974
   -23.7145 -23.7109 -23.7029 -23.6995 -23.6800 -23.6764 -23.6714 -23.6679
    -8.9651  -8.8938  -8.7795  -8.6677  -8.6423  -8.5650  -8.5027  -8.2821
    -8.2816  -8.2392  -8.2127  -8.1406  -8.1089  -7.9713  -7.9121  -7.8723
    -7.8637  -7.8359  -7.7501  -7.6371  -5.9321  -5.7994  -5.7678  -5.7415
    -5.7361  -5.7334  -5.6957  -5.6880  -5.6613  -5.6509  -5.6462  -5.5593
    -5.5151  -5.5108  -5.4066  -5.4006  -5.3779  -5.3616  -5.2957  -5.2550
    -5.2382  -5.1907  -5.1701  -5.1327   2.4392   2.4526   3.0090   3.0271
     3.0478   3.0692   3.0967   3.1053   3.1754   3.1937   3.2688   3.3144
     3.3390   3.3670   3.4267   3.4427   3.8316   4.0828   4.1136   4.1578
     4.2644   4.3754   4.4982   4.5556   4.7326   4.7761   4.8265   5.2196
     5.3248   5.3379   5.3401   5.4690   5.5344   5.5838   5.6395   5.6753
     5.8381   5.8657   6.0342   6.0541   6.0739   6.1385   6.3046   6.3710
     6.4244   6.5842   6.5858   6.6532   6.6926   6.7603   6.7973   6.8021
     6.9076   6.9565   6.9906   7.0198   7.1404   7.2153   7.2515   7.2980
     7.3969   7.4092   7.4498   7.4758   7.6399   7.6636   7.7317   7.7435
     7.7618   7.7842   7.8843   7.8965   7.9455   7.9847   8.0060   8.1455
     8.2460   8.3687   8.4463   8.5488   8.5800   8.6028   9.0703   9.1089
     9.8815   9.9375  10.1126  10.2153  10.3928  10.4749  10.4808  10.4970
    10.8021  10.9510  11.0076  11.0380  11.2542  11.3767  11.3948  11.4713
    14.1948  14.2740  14.8524  14.9024  15.2150  15.3637  15.5936  15.6834
    15.7863  15.8764  15.8841  15.9677  16.0335  16.1963  16.3039  16.4857
    16.6140  16.6192  16.7539  16.7838  16.8803  16.9032  16.9543  17.0253
    17.2348  17.2489  17.2651  17.3746  17.4416  17.5466  17.6759  17.6820
    17.7564  17.8183  17.8265  17.9334  17.9833  18.0311  18.1837  18.2195
    18.3417  18.3690  18.5059  18.5304  18.7437  18.7533  18.8758  19.1619
    19.3845  19.4201  19.6941  19.8327  20.0647  20.2782  20.5930  20.7148

          k =-0.3333-0.1170 0.1701 ( 46843 PWs)   bands (ev):

   -88.7466 -88.7466 -88.2709 -88.2708 -85.2984 -85.2984 -84.8973 -84.8973
   -52.7165 -52.7165 -52.1996 -52.1996 -51.5934 -51.5934 -51.5417 -51.5417
   -51.3890 -51.3889 -50.8744 -50.8744 -48.8516 -48.8516 -48.5083 -48.5083
   -48.4610 -48.4610 -48.4410 -48.4410 -48.1846 -48.1846 -47.9974 -47.9974
   -23.7188 -23.7170 -23.6993 -23.6974 -23.6819 -23.6800 -23.6655 -23.6636
    -8.9719  -8.9442  -8.7075  -8.6675  -8.6177  -8.6095  -8.3718  -8.3026
    -8.2275  -8.1811  -8.1353  -8.0908  -8.0143  -8.0005  -7.8802  -7.8615
    -7.8380  -7.8230  -7.7166  -7.6752  -5.9410  -5.8875  -5.8653  -5.8283
    -5.7695  -5.7582  -5.7417  -5.7310  -5.7119  -5.7041  -5.6059  -5.5552
    -5.5495  -5.5246  -5.4555  -5.4523  -5.4426  -5.3816  -5.3607  -5.2860
    -5.2432  -5.2222  -5.1619  -5.1330   2.5789   2.5883   2.9569   2.9648
     3.0571   3.0870   3.1482   3.1547   3.2291   3.2501   3.2950   3.3013
     3.3438   3.3622   3.5149   3.5177   3.8176   3.9327   4.1865   4.2073
     4.3713   4.3782   4.4170   4.4263   4.6058   4.6295   4.9013   5.0780
     5.1295   5.1710   5.3438   5.4289   5.5696   5.6165   5.6731   5.6761
     5.7805   5.8618   5.9642   6.0049   6.0679   6.1703   6.3013   6.3439
     6.4375   6.5080   6.6189   6.6917   6.7394   6.7874   6.8972   6.9123
     6.9377   7.0054   7.0522   7.0899   7.1848   7.1982   7.3662   7.4137
     7.4295   7.4965   7.5413   7.5794   7.6608   7.7039   7.7866   7.7934
     7.8190   7.8332   7.8736   7.9207   8.0091   8.0173   8.0353   8.2430
     8.2838   8.3127   8.6650   8.6969   8.8046   8.8100   9.0062   9.0534
     9.8511   9.8720  10.0686  10.0993  10.4460  10.4774  10.5509  10.6505
    10.8289  10.8723  11.0023  11.0231  11.2892  11.3141  11.5409  11.5756
    13.9234  13.9701  15.0145  15.0234  15.1581  15.2537  15.3235  15.3523
    15.6077  15.7403  15.8393  15.8709  16.0356  16.0686  16.2295  16.2512
    16.4391  16.5223  16.6139  16.6652  16.7355  16.8149  16.8526  16.9443
    17.0122  17.0496  17.1016  17.1607  17.2832  17.3836  17.4885  17.5373
    17.6586  17.7208  17.8363  17.9083  17.9396  18.0630  18.1544  18.1863
    18.2055  18.3431  18.4549  18.5458  18.9171  19.0364  19.1978  19.2787
    19.3599  19.4409  19.6260  19.8342  20.1991  20.3939  20.5581  20.8506

          k =-0.3333-0.1170 0.3402 ( 46820 PWs)   bands (ev):

   -88.7466 -88.7466 -88.2709 -88.2709 -85.2984 -85.2984 -84.8973 -84.8973
   -52.7165 -52.7165 -52.1996 -52.1996 -51.5934 -51.5934 -51.5417 -51.5417
   -51.3889 -51.3889 -50.8744 -50.8744 -48.8516 -48.8516 -48.5083 -48.5083
   -48.4610 -48.4610 -48.4410 -48.4410 -48.1846 -48.1846 -47.9974 -47.9974
   -23.7136 -23.7119 -23.7021 -23.7004 -23.6790 -23.6772 -23.6705 -23.6687
    -8.9501  -8.9152  -8.7619  -8.7157  -8.6024  -8.5655  -8.4637  -8.3683
    -8.2815  -8.2450  -8.1839  -8.1599  -8.0421  -7.9702  -7.9093  -7.8846
    -7.8763  -7.8582  -7.7118  -7.6586  -5.9063  -5.8426  -5.7631  -5.7536
    -5.7379  -5.7371  -5.7027  -5.6795  -5.6638  -5.6556  -5.6007  -5.5421
    -5.5260  -5.5006  -5.4377  -5.4308  -5.3554  -5.3249  -5.3141  -5.2746
    -5.2152  -5.1971  -5.1628  -5.1419   2.4426   2.4494   3.0127   3.0205
     3.0597   3.0711   3.0934   3.1013   3.1776   3.1898   3.2805   3.3028
     3.3440   3.3577   3.4320   3.4399   3.8710   3.9834   4.1257   4.1435
     4.3039   4.3562   4.5207   4.5456   4.7556   4.7909   4.9278   5.1894
     5.2528   5.3165   5.3540   5.4026   5.5436   5.5697   5.6362   5.6666
     5.8991   5.9243   6.0295   6.0474   6.0917   6.1212   6.3296   6.3695
     6.4231   6.4967   6.5998   6.6360   6.6745   6.7393   6.8154   6.8480
     6.8819   6.9528   6.9967   7.0134   7.1666   7.1995   7.2881   7.3229
     7.3720   7.4245   7.4698   7.5408   7.5541   7.6478   7.7030   7.7232
     7.7595   7.8121   7.9038   7.9292   7.9624   7.9882   8.0497   8.1685
     8.2179   8.2558   8.4722   8.5177   8.5906   8.5984   9.0836   9.1042
     9.8995   9.9288  10.1464  10.1974  10.4126  10.4531  10.4903  10.4972
    10.8239  10.9006  11.0207  11.0361  11.3000  11.3684  11.3969  11.4304
    14.2167  14.2564  14.8594  14.8841  15.2652  15.3375  15.5941  15.6586
    15.7816  15.8457  15.8748  15.9228  16.1037  16.2054  16.3861  16.4567
    16.5935  16.5981  16.7341  16.8355  16.8616  16.9591  17.0129  17.0347
    17.1329  17.2214  17.3037  17.3478  17.4499  17.5453  17.6053  17.6977
    17.7798  17.8293  17.8677  17.9336  18.0221  18.0543  18.1745  18.1827
    18.2590  18.3398  18.4021  18.4839  18.7697  18.8765  19.0205  19.1217
    19.3276  19.4522  19.6123  19.8232  20.2443  20.3675  20.5397  20.8399

     the spin up/dw Fermi energies are     9.7839    9.7854 ev

!    total energy              =   -5930.10599804 Ry

     total all-electron energy =    -76179.344563 Ry
     estimated scf accuracy    <       0.00000043 Ry

     The total energy is the sum of the following terms:
     one-electron contribution =   -2180.93592983 Ry
     hartree contribution      =    1272.88858657 Ry
     xc contribution           =    -542.61499987 Ry
     ewald contribution        =   -2054.40570061 Ry
     Hubbard energy            =       0.84580175 Ry
     one-center paw contrib.   =   -2425.88375605 Ry

     total magnetization       =     0.00 Bohr mag/cell
     absolute magnetization    =    25.87 Bohr mag/cell

     convergence has been achieved in   5 iterations

     Writing output data file ./LSCO.save/
 
     init_run     :     44.14s CPU     15.02s WALL (       1 calls)
     electrons    :   4048.02s CPU   1142.66s WALL (       1 calls)

     Called by init_run:
     wfcinit      :     25.95s CPU      7.07s WALL (       1 calls)
     potinit      :      4.55s CPU      2.13s WALL (       1 calls)
     hinit0       :      9.28s CPU      2.97s WALL (       1 calls)

     Called by electrons:
     c_bands      :   3971.08s CPU   1117.29s WALL (       6 calls)
     sum_band     :     56.53s CPU     18.96s WALL (       6 calls)
     v_of_rho     :      6.94s CPU      1.91s WALL (       6 calls)
     newd         :      2.43s CPU      0.72s WALL (       6 calls)
     PAW_pot      :     12.02s CPU      3.57s WALL (       6 calls)
     mix_rho      :      0.98s CPU      0.28s WALL (       6 calls)

     Called by c_bands:
     init_us_2    :      0.92s CPU      0.29s WALL (      70 calls)
     ccgdiagg     :   3672.58s CPU    979.28s WALL (      56 calls)
     wfcrot       :    222.83s CPU     59.76s WALL (      51 calls)

     Called by *cgdiagg:
     h_psi        :   1959.17s CPU    523.99s WALL (   80746 calls)
     s_psi        :    364.39s CPU    194.25s WALL (  161446 calls)

     Called by h_psi:
     h_psi:calbec :    435.55s CPU    110.98s WALL (   80746 calls)
     vloc_psi     :    911.76s CPU    249.53s WALL (   80746 calls)
     add_vuspsi   :    189.77s CPU     99.63s WALL (   80746 calls)
     vhpsi        :    192.40s CPU     50.09s WALL (   80746 calls)
     hs_1psi      :   2180.93s CPU    590.58s WALL (   80695 calls)
     s_1psi       :    758.85s CPU    209.10s WALL (   80695 calls)

     General routines
     calbec       :    932.24s CPU    242.29s WALL (  242252 calls)
     fft          :      5.66s CPU      1.68s WALL (     146 calls)
     ffts         :      0.36s CPU      0.10s WALL (      24 calls)
     fftw         :    929.91s CPU    242.34s WALL (  193070 calls)
     interpolate  :      0.57s CPU      0.18s WALL (      12 calls)
     davcio       :      0.00s CPU      0.05s WALL (       5 calls)
 
     Parallel routines

     Hubbard U routines
     new_ns       :      1.14s CPU      0.32s WALL (       6 calls)
     vhpsi        :    192.40s CPU     50.09s WALL (   80746 calls)
 
     PWSCF        :      1h 8m CPU  19m29.65s WALL

 
   This run was terminated on:  19:28:45   2Mar2022            

=------------------------------------------------------------------------------=
   JOB DONE.
=------------------------------------------------------------------------------=
